3
Lattice="15.0 0.0 0.0 0.0 15.0 0.0 0.0 0.0 15.0" Properties=species:S:1:pos:R:3 energy=0.6916585713 pbc="T T T"
O        0.00000000       0.00000000       0.00000000
H        1.00631085       0.00000000       0.00000000
H       -0.54455962       0.66775029       0.00000000
3
Lattice="15.0 0.0 0.0 0.0 15.0 0.0 0.0 0.0 15.0" Properties=species:S:1:pos:R:3 energy=0.1621034782 pbc="T T T"
O        0.00000000       0.00000000       0.00000000
H        0.97245101       0.00000000       0.00000000
H       -0.05623407       1.02249096       0.00000000
3
Lattice="15.0 0.0 0.0 0.0 15.0 0.0 0.0 0.0 15.0" Properties=species:S:1:pos:R:3 energy=0.6838015149 pbc="T T T"
O        0.00000000       0.00000000       0.00000000
H        1.07326458       0.00000000       0.00000000
H       -0.00440553       1.09990236       0.00000000
3
Lattice="15.0 0.0 0.0 0.0 15.0 0.0 0.0 0.0 15.0" Properties=species:S:1:pos:R:3 energy=0.006773197 pbc="T T T"
O        0.00000000       0.00000000       0.00000000
H        0.96577657       0.00000000       0.00000000
H       -0.19145186       0.94579761       0.00000000
3
Lattice="15.0 0.0 0.0 0.0 15.0 0.0 0.0 0.0 15.0" Properties=species:S:1:pos:R:3 energy=0.9934074565 pbc="T T T"
O        0.00000000       0.00000000       0.00000000
H        0.95667839       0.00000000       0.00000000
H        0.18769436       0.83894379       0.00000000
3
Lattice="15.0 0.0 0.0 0.0 15.0 0.0 0.0 0.0 15.0" Properties=species:S:1:pos:R:3 energy=0.1103125153 pbc="T T T"
O        0.00000000       0.00000000       0.00000000
H        0.96178060       0.00000000       0.00000000
H       -0.16402666       1.01290954       0.00000000
3
Lattice="15.0 0.0 0.0 0.0 15.0 0.0 0.0 0.0 15.0" Properties=species:S:1:pos:R:3 energy=0.4385259673 pbc="T T T"
O        0.00000000       0.00000000       0.00000000
H        1.04487700       0.00000000       0.00000000
H       -0.34504965       0.80523969       0.00000000
3
Lattice="15.0 0.0 0.0 0.0 15.0 0.0 0.0 0.0 15.0" Properties=species:S:1:pos:R:3 energy=0.0190873097 pbc="T T T"
O        0.00000000       0.00000000       0.00000000
H        0.97562637       0.00000000       0.00000000
H       -0.26278985       0.90283566       0.00000000
3
Lattice="15.0 0.0 0.0 0.0 15.0 0.0 0.0 0.0 15.0" Properties=species:S:1:pos:R:3 energy=0.4090325311 pbc="T T T"
O        0.00000000       0.00000000       0.00000000
H        0.87988196       0.00000000       0.00000000
H       -0.46934840       0.76909885       0.00000000
3
Lattice="15.0 0.0 0.0 0.0 15.0 0.0 0.0 0.0 15.0" Properties=species:S:1:pos:R:3 energy=0.4225579015 pbc="T T T"
O        0.00000000       0.00000000       0.00000000
H        0.95912353       0.00000000       0.00000000
H       -0.64335947       0.70966475       0.00000000
3
Lattice="15.0 0.0 0.0 0.0 15.0 0.0 0.0 0.0 15.0" Properties=species:S:1:pos:R:3 energy=0.0240858264 pbc="T T T"
O        0.00000000       0.00000000       0.00000000
H        0.93460857       0.00000000       0.00000000
H       -0.19096279       0.94226725       0.00000000
3
Lattice="15.0 0.0 0.0 0.0 15.0 0.0 0.0 0.0 15.0" Properties=species:S:1:pos:R:3 energy=0.0320391022 pbc="T T T"
O        0.00000000       0.00000000       0.00000000
H        0.94381668       0.00000000       0.00000000
H       -0.25304944       0.89308552       0.00000000
3
Lattice="15.0 0.0 0.0 0.0 15.0 0.0 0.0 0.0 15.0" Properties=species:S:1:pos:R:3 energy=0.1634236332 pbc="T T T"
O        0.00000000       0.00000000       0.00000000
H        0.92170375       0.00000000       0.00000000
H       -0.04784628       0.93817682       0.00000000
3
Lattice="15.0 0.0 0.0 0.0 15.0 0.0 0.0 0.0 15.0" Properties=species:S:1:pos:R:3 energy=0.4097016645 pbc="T T T"
O        0.00000000       0.00000000       0.00000000
H        0.85969645       0.00000000       0.00000000
H       -0.44858360       0.85720714       0.00000000
3
Lattice="15.0 0.0 0.0 0.0 15.0 0.0 0.0 0.0 15.0" Properties=species:S:1:pos:R:3 energy=0.2381774711 pbc="T T T"
O        0.00000000       0.00000000       0.00000000
H        1.01837702       0.00000000       0.00000000
H       -0.37294313       0.95721861       0.00000000
3
Lattice="15.0 0.0 0.0 0.0 15.0 0.0 0.0 0.0 15.0" Properties=species:S:1:pos:R:3 energy=0.362167493 pbc="T T T"
O        0.00000000       0.00000000       0.00000000
H        0.96439009       0.00000000       0.00000000
H        0.02229734       1.06750250       0.00000000
3
Lattice="15.0 0.0 0.0 0.0 15.0 0.0 0.0 0.0 15.0" Properties=species:S:1:pos:R:3 energy=0.0675378982 pbc="T T T"
O        0.00000000       0.00000000       0.00000000
H        0.99181464       0.00000000       0.00000000
H       -0.28525775       0.88048348       0.00000000
3
Lattice="15.0 0.0 0.0 0.0 15.0 0.0 0.0 0.0 15.0" Properties=species:S:1:pos:R:3 energy=0.1337977129 pbc="T T T"
O        0.00000000       0.00000000       0.00000000
H        0.92231733       0.00000000       0.00000000
H       -0.40411605       0.83082050       0.00000000
3
Lattice="15.0 0.0 0.0 0.0 15.0 0.0 0.0 0.0 15.0" Properties=species:S:1:pos:R:3 energy=0.4176048143 pbc="T T T"
O        0.00000000       0.00000000       0.00000000
H        0.89865471       0.00000000       0.00000000
H       -0.50428964       0.73512906       0.00000000
3
Lattice="15.0 0.0 0.0 0.0 15.0 0.0 0.0 0.0 15.0" Properties=species:S:1:pos:R:3 energy=0.7125404882 pbc="T T T"
O        0.00000000       0.00000000       0.00000000
H        1.13993681       0.00000000       0.00000000
H       -0.36131265       0.94690953       0.00000000
3
Lattice="15.0 0.0 0.0 0.0 15.0 0.0 0.0 0.0 15.0" Properties=species:S:1:pos:R:3 energy=1.311623078 pbc="T T T"
O        0.00000000       0.00000000       0.00000000
H        0.81117419       0.00000000       0.00000000
H       -0.11985975       0.84133139       0.00000000
3
Lattice="15.0 0.0 0.0 0.0 15.0 0.0 0.0 0.0 15.0" Properties=species:S:1:pos:R:3 energy=1.0966514006 pbc="T T T"
O        0.00000000       0.00000000       0.00000000
H        1.07540753       0.00000000       0.00000000
H       -0.55195450       0.64476128       0.00000000
3
Lattice="15.0 0.0 0.0 0.0 15.0 0.0 0.0 0.0 15.0" Properties=species:S:1:pos:R:3 energy=0.7376351712 pbc="T T T"
O        0.00000000       0.00000000       0.00000000
H        0.99894960       0.00000000       0.00000000
H       -0.35241394       0.74698319       0.00000000
3
Lattice="15.0 0.0 0.0 0.0 15.0 0.0 0.0 0.0 15.0" Properties=species:S:1:pos:R:3 energy=0.0048212807 pbc="T T T"
O        0.00000000       0.00000000       0.00000000
H        0.96890445       0.00000000       0.00000000
H       -0.21387524       0.92819240       0.00000000
3
Lattice="15.0 0.0 0.0 0.0 15.0 0.0 0.0 0.0 15.0" Properties=species:S:1:pos:R:3 energy=0.1293800124 pbc="T T T"
O        0.00000000       0.00000000       0.00000000
H        0.95968687       0.00000000       0.00000000
H       -0.40862305       0.82069510       0.00000000
3
Lattice="15.0 0.0 0.0 0.0 15.0 0.0 0.0 0.0 15.0" Properties=species:S:1:pos:R:3 energy=0.872457439 pbc="T T T"
O        0.00000000       0.00000000       0.00000000
H        0.85759144       0.00000000       0.00000000
H        0.07591769       0.88970603       0.00000000
3
Lattice="15.0 0.0 0.0 0.0 15.0 0.0 0.0 0.0 15.0" Properties=species:S:1:pos:R:3 energy=0.4509456031 pbc="T T T"
O        0.00000000       0.00000000       0.00000000
H        1.03725028       0.00000000       0.00000000
H        0.08709804       1.03776680       0.00000000
3
Lattice="15.0 0.0 0.0 0.0 15.0 0.0 0.0 0.0 15.0" Properties=species:S:1:pos:R:3 energy=0.0517005803 pbc="T T T"
O        0.00000000       0.00000000       0.00000000
H        0.97871231       0.00000000       0.00000000
H       -0.16858628       0.91095493       0.00000000
3
Lattice="15.0 0.0 0.0 0.0 15.0 0.0 0.0 0.0 15.0" Properties=species:S:1:pos:R:3 energy=0.0058136446 pbc="T T T"
O        0.00000000       0.00000000       0.00000000
H        0.96573171       0.00000000       0.00000000
H       -0.20562309       0.94703348       0.00000000
3
Lattice="15.0 0.0 0.0 0.0 15.0 0.0 0.0 0.0 15.0" Properties=species:S:1:pos:R:3 energy=1.3464355538 pbc="T T T"
O        0.00000000       0.00000000       0.00000000
H        1.12489145       0.00000000       0.00000000
H        0.14410786       1.16292934       0.00000000
3
Lattice="15.0 0.0 0.0 0.0 15.0 0.0 0.0 0.0 15.0" Properties=species:S:1:pos:R:3 energy=1.3801852997 pbc="T T T"
O        0.00000000       0.00000000       0.00000000
H        0.88274739       0.00000000       0.00000000
H        0.11633204       1.21399228       0.00000000
3
Lattice="15.0 0.0 0.0 0.0 15.0 0.0 0.0 0.0 15.0" Properties=species:S:1:pos:R:3 energy=0.0002851209 pbc="T T T"
O        0.00000000       0.00000000       0.00000000
H        0.95649054       0.00000000       0.00000000
H       -0.23721011       0.92665997       0.00000000
3
Lattice="15.0 0.0 0.0 0.0 15.0 0.0 0.0 0.0 15.0" Properties=species:S:1:pos:R:3 energy=0.7383910382 pbc="T T T"
O        0.00000000       0.00000000       0.00000000
H        1.05708649       0.00000000       0.00000000
H        0.19207647       1.05336170       0.00000000
3
Lattice="15.0 0.0 0.0 0.0 15.0 0.0 0.0 0.0 15.0" Properties=species:S:1:pos:R:3 energy=0.0516379642 pbc="T T T"
O        0.00000000       0.00000000       0.00000000
H        0.98357095       0.00000000       0.00000000
H       -0.26117159       0.88694917       0.00000000
3
Lattice="15.0 0.0 0.0 0.0 15.0 0.0 0.0 0.0 15.0" Properties=species:S:1:pos:R:3 energy=0.1019862448 pbc="T T T"
O        0.00000000       0.00000000       0.00000000
H        1.00253512       0.00000000       0.00000000
H       -0.17045358       0.99253199       0.00000000
3
Lattice="15.0 0.0 0.0 0.0 15.0 0.0 0.0 0.0 15.0" Properties=species:S:1:pos:R:3 energy=0.1667877959 pbc="T T T"
O        0.00000000       0.00000000       0.00000000
H        0.94037952       0.00000000       0.00000000
H       -0.28067572       1.00391766       0.00000000
3
Lattice="15.0 0.0 0.0 0.0 15.0 0.0 0.0 0.0 15.0" Properties=species:S:1:pos:R:3 energy=1.3554753367 pbc="T T T"
O        0.00000000       0.00000000       0.00000000
H        1.20356299       0.00000000       0.00000000
H       -0.38549801       1.02415057       0.00000000
3
Lattice="15.0 0.0 0.0 0.0 15.0 0.0 0.0 0.0 15.0" Properties=species:S:1:pos:R:3 energy=0.0025060816 pbc="T T T"
O        0.00000000       0.00000000       0.00000000
H        0.95219875       0.00000000       0.00000000
H       -0.22722976       0.92543014       0.00000000
3
Lattice="15.0 0.0 0.0 0.0 15.0 0.0 0.0 0.0 15.0" Properties=species:S:1:pos:R:3 energy=0.1090517383 pbc="T T T"
O        0.00000000       0.00000000       0.00000000
H        0.94643732       0.00000000       0.00000000
H       -0.07561346       0.99892990       0.00000000
3
Lattice="15.0 0.0 0.0 0.0 15.0 0.0 0.0 0.0 15.0" Properties=species:S:1:pos:R:3 energy=0.640769644 pbc="T T T"
O        0.00000000       0.00000000       0.00000000
H        0.99434703       0.00000000       0.00000000
H       -0.36183824       0.75209280       0.00000000
3
Lattice="15.0 0.0 0.0 0.0 15.0 0.0 0.0 0.0 15.0" Properties=species:S:1:pos:R:3 energy=1.3069944158 pbc="T T T"
O        0.00000000       0.00000000       0.00000000
H        1.07719880       0.00000000       0.00000000
H        0.15390156       0.81940864       0.00000000
3
Lattice="15.0 0.0 0.0 0.0 15.0 0.0 0.0 0.0 15.0" Properties=species:S:1:pos:R:3 energy=0.0002018105 pbc="T T T"
O        0.00000000       0.00000000       0.00000000
H        0.95689035       0.00000000       0.00000000
H       -0.23761144       0.92689014       0.00000000
3
Lattice="15.0 0.0 0.0 0.0 15.0 0.0 0.0 0.0 15.0" Properties=species:S:1:pos:R:3 energy=0.010691008 pbc="T T T"
O        0.00000000       0.00000000       0.00000000
H        0.94174964       0.00000000       0.00000000
H       -0.21108192       0.93712799       0.00000000
3
Lattice="15.0 0.0 0.0 0.0 15.0 0.0 0.0 0.0 15.0" Properties=species:S:1:pos:R:3 energy=0.0744717267 pbc="T T T"
O        0.00000000       0.00000000       0.00000000
H        1.00181706       0.00000000       0.00000000
H       -0.11300140       0.95007911       0.00000000
3
Lattice="15.0 0.0 0.0 0.0 15.0 0.0 0.0 0.0 15.0" Properties=species:S:1:pos:R:3 energy=0.3806670231 pbc="T T T"
O        0.00000000       0.00000000       0.00000000
H        1.08554088       0.00000000       0.00000000
H       -0.35181933       0.88255785       0.00000000
3
Lattice="15.0 0.0 0.0 0.0 15.0 0.0 0.0 0.0 15.0" Properties=species:S:1:pos:R:3 energy=0.0110778423 pbc="T T T"
O        0.00000000       0.00000000       0.00000000
H        0.94010115       0.00000000       0.00000000
H       -0.22694950       0.92593505       0.00000000
3
Lattice="15.0 0.0 0.0 0.0 15.0 0.0 0.0 0.0 15.0" Properties=species:S:1:pos:R:3 energy=0.7294686316 pbc="T T T"
O        0.00000000       0.00000000       0.00000000
H        0.87268584       0.00000000       0.00000000
H       -0.61023175       0.64667393       0.00000000
3
Lattice="15.0 0.0 0.0 0.0 15.0 0.0 0.0 0.0 15.0" Properties=species:S:1:pos:R:3 energy=1.3337073626 pbc="T T T"
O        0.00000000       0.00000000       0.00000000
H        1.08376626       0.00000000       0.00000000
H       -0.61813427       0.99125289       0.00000000
3
Lattice="15.0 0.0 0.0 0.0 15.0 0.0 0.0 0.0 15.0" Properties=species:S:1:pos:R:3 energy=0.0201066265 pbc="T T T"
O        0.00000000       0.00000000       0.00000000
H        0.97893979       0.00000000       0.00000000
H       -0.25343901       0.94440055       0.00000000
3
Lattice="15.0 0.0 0.0 0.0 15.0 0.0 0.0 0.0 15.0" Properties=species:S:1:pos:R:3 energy=0.1176061219 pbc="T T T"
O        0.00000000       0.00000000       0.00000000
H        0.93325529       0.00000000       0.00000000
H       -0.44225656       0.86379325       0.00000000
3
Lattice="15.0 0.0 0.0 0.0 15.0 0.0 0.0 0.0 15.0" Properties=species:S:1:pos:R:3 energy=0.8198377071 pbc="T T T"
O        0.00000000       0.00000000       0.00000000
H        1.17617315       0.00000000       0.00000000
H       -0.01920681       0.95937987       0.00000000
3
Lattice="15.0 0.0 0.0 0.0 15.0 0.0 0.0 0.0 15.0" Properties=species:S:1:pos:R:3 energy=0.0106760581 pbc="T T T"
O        0.00000000       0.00000000       0.00000000
H        0.95183110       0.00000000       0.00000000
H       -0.30048242       0.90780050       0.00000000
3
Lattice="15.0 0.0 0.0 0.0 15.0 0.0 0.0 0.0 15.0" Properties=species:S:1:pos:R:3 energy=0.0378899176 pbc="T T T"
O        0.00000000       0.00000000       0.00000000
H        0.98807157       0.00000000       0.00000000
H       -0.16320649       0.93049689       0.00000000
3
Lattice="15.0 0.0 0.0 0.0 15.0 0.0 0.0 0.0 15.0" Properties=species:S:1:pos:R:3 energy=0.0698439788 pbc="T T T"
O        0.00000000       0.00000000       0.00000000
H        0.99096394       0.00000000       0.00000000
H       -0.19260674       0.90118980       0.00000000
3
Lattice="15.0 0.0 0.0 0.0 15.0 0.0 0.0 0.0 15.0" Properties=species:S:1:pos:R:3 energy=0.0176630603 pbc="T T T"
O        0.00000000       0.00000000       0.00000000
H        0.94401994       0.00000000       0.00000000
H       -0.28698954       0.93143789       0.00000000
3
Lattice="15.0 0.0 0.0 0.0 15.0 0.0 0.0 0.0 15.0" Properties=species:S:1:pos:R:3 energy=0.0530136821 pbc="T T T"
O        0.00000000       0.00000000       0.00000000
H        0.97750705       0.00000000       0.00000000
H       -0.34285676       0.92077330       0.00000000
3
Lattice="15.0 0.0 0.0 0.0 15.0 0.0 0.0 0.0 15.0" Properties=species:S:1:pos:R:3 energy=1.4114346595 pbc="T T T"
O        0.00000000       0.00000000       0.00000000
H        0.86439966       0.00000000       0.00000000
H       -0.37964158       0.69554883       0.00000000
3
Lattice="15.0 0.0 0.0 0.0 15.0 0.0 0.0 0.0 15.0" Properties=species:S:1:pos:R:3 energy=1.6276180109 pbc="T T T"
O        0.00000000       0.00000000       0.00000000
H        1.31083492       0.00000000       0.00000000
H       -0.12655696       0.90744789       0.00000000
3
Lattice="15.0 0.0 0.0 0.0 15.0 0.0 0.0 0.0 15.0" Properties=species:S:1:pos:R:3 energy=0.9597739766 pbc="T T T"
O        0.00000000       0.00000000       0.00000000
H        1.00759307       0.00000000       0.00000000
H        0.00079750       0.82012637       0.00000000
3
Lattice="15.0 0.0 0.0 0.0 15.0 0.0 0.0 0.0 15.0" Properties=species:S:1:pos:R:3 energy=0.007908886 pbc="T T T"
O        0.00000000       0.00000000       0.00000000
H        0.97020183       0.00000000       0.00000000
H       -0.19210556       0.93679510       0.00000000
3
Lattice="15.0 0.0 0.0 0.0 15.0 0.0 0.0 0.0 15.0" Properties=species:S:1:pos:R:3 energy=0.232941059 pbc="T T T"
O        0.00000000       0.00000000       0.00000000
H        0.99785222       0.00000000       0.00000000
H        0.04435501       0.99395689       0.00000000
3
Lattice="15.0 0.0 0.0 0.0 15.0 0.0 0.0 0.0 15.0" Properties=species:S:1:pos:R:3 energy=0.0123494685 pbc="T T T"
O        0.00000000       0.00000000       0.00000000
H        0.94987740       0.00000000       0.00000000
H       -0.18510090       0.93189397       0.00000000
3
Lattice="15.0 0.0 0.0 0.0 15.0 0.0 0.0 0.0 15.0" Properties=species:S:1:pos:R:3 energy=0.0565819329 pbc="T T T"
O        0.00000000       0.00000000       0.00000000
H        0.95896306       0.00000000       0.00000000
H       -0.11836540       0.92678292       0.00000000
3
Lattice="15.0 0.0 0.0 0.0 15.0 0.0 0.0 0.0 15.0" Properties=species:S:1:pos:R:3 energy=1.5592748788 pbc="T T T"
O        0.00000000       0.00000000       0.00000000
H        0.83522511       0.00000000       0.00000000
H       -0.34440590       1.16032593       0.00000000
3
Lattice="15.0 0.0 0.0 0.0 15.0 0.0 0.0 0.0 15.0" Properties=species:S:1:pos:R:3 energy=1.5599364067 pbc="T T T"
O        0.00000000       0.00000000       0.00000000
H        1.23125381       0.00000000       0.00000000
H       -0.31440464       1.07011544       0.00000000
3
Lattice="15.0 0.0 0.0 0.0 15.0 0.0 0.0 0.0 15.0" Properties=species:S:1:pos:R:3 energy=0.4025770787 pbc="T T T"
O        0.00000000       0.00000000       0.00000000
H        1.02270358       0.00000000       0.00000000
H       -0.54696503       0.84957506       0.00000000
3
Lattice="15.0 0.0 0.0 0.0 15.0 0.0 0.0 0.0 15.0" Properties=species:S:1:pos:R:3 energy=0.0250763317 pbc="T T T"
O        0.00000000       0.00000000       0.00000000
H        0.95305902       0.00000000       0.00000000
H       -0.28496160       0.88783381       0.00000000
3
Lattice="15.0 0.0 0.0 0.0 15.0 0.0 0.0 0.0 15.0" Properties=species:S:1:pos:R:3 energy=0.3932507354 pbc="T T T"
O        0.00000000       0.00000000       0.00000000
H        1.04662549       0.00000000       0.00000000
H        0.02898396       0.91272595       0.00000000
3
Lattice="15.0 0.0 0.0 0.0 15.0 0.0 0.0 0.0 15.0" Properties=species:S:1:pos:R:3 energy=0.6847010852 pbc="T T T"
O        0.00000000       0.00000000       0.00000000
H        1.08847856       0.00000000       0.00000000
H        0.00855489       1.08359590       0.00000000
3
Lattice="15.0 0.0 0.0 0.0 15.0 0.0 0.0 0.0 15.0" Properties=species:S:1:pos:R:3 energy=0.4702254524 pbc="T T T"
O        0.00000000       0.00000000       0.00000000
H        0.86739536       0.00000000       0.00000000
H       -0.00455516       0.99175893       0.00000000
3
Lattice="15.0 0.0 0.0 0.0 15.0 0.0 0.0 0.0 15.0" Properties=species:S:1:pos:R:3 energy=0.5745795721 pbc="T T T"
O        0.00000000       0.00000000       0.00000000
H        0.87239667       0.00000000       0.00000000
H       -0.04633454       1.06537961       0.00000000
3
Lattice="15.0 0.0 0.0 0.0 15.0 0.0 0.0 0.0 15.0" Properties=species:S:1:pos:R:3 energy=1.1471217297 pbc="T T T"
O        0.00000000       0.00000000       0.00000000
H        0.84019062       0.00000000       0.00000000
H        0.16128906       1.05973401       0.00000000
3
Lattice="15.0 0.0 0.0 0.0 15.0 0.0 0.0 0.0 15.0" Properties=species:S:1:pos:R:3 energy=0.1777163511 pbc="T T T"
O        0.00000000       0.00000000       0.00000000
H        1.01772921       0.00000000       0.00000000
H       -0.20843134       1.00523876       0.00000000
3
Lattice="15.0 0.0 0.0 0.0 15.0 0.0 0.0 0.0 15.0" Properties=species:S:1:pos:R:3 energy=0.4248100682 pbc="T T T"
O        0.00000000       0.00000000       0.00000000
H        0.94987729       0.00000000       0.00000000
H       -0.43525574       0.99930048       0.00000000
3
Lattice="15.0 0.0 0.0 0.0 15.0 0.0 0.0 0.0 15.0" Properties=species:S:1:pos:R:3 energy=0.9906837138 pbc="T T T"
O        0.00000000       0.00000000       0.00000000
H        0.97179853       0.00000000       0.00000000
H        0.18456467       0.83721760       0.00000000
3
Lattice="15.0 0.0 0.0 0.0 15.0 0.0 0.0 0.0 15.0" Properties=species:S:1:pos:R:3 energy=0.9481673218 pbc="T T T"
O        0.00000000       0.00000000       0.00000000
H        1.19060146       0.00000000       0.00000000
H        0.04488857       0.96200618       0.00000000
3
Lattice="15.0 0.0 0.0 0.0 15.0 0.0 0.0 0.0 15.0" Properties=species:S:1:pos:R:3 energy=0.0579305074 pbc="T T T"
O        0.00000000       0.00000000       0.00000000
H        0.91541792       0.00000000       0.00000000
H       -0.24948359       0.91339866       0.00000000
3
Lattice="15.0 0.0 0.0 0.0 15.0 0.0 0.0 0.0 15.0" Properties=species:S:1:pos:R:3 energy=0.4749406903 pbc="T T T"
O        0.00000000       0.00000000       0.00000000
H        1.04433765       0.00000000       0.00000000
H        0.08319109       1.04181945       0.00000000
3
Lattice="15.0 0.0 0.0 0.0 15.0 0.0 0.0 0.0 15.0" Properties=species:S:1:pos:R:3 energy=0.0065284796 pbc="T T T"
O        0.00000000       0.00000000       0.00000000
H        0.94838481       0.00000000       0.00000000
H       -0.27859606       0.91861384       0.00000000
3
Lattice="15.0 0.0 0.0 0.0 15.0 0.0 0.0 0.0 15.0" Properties=species:S:1:pos:R:3 energy=0.1345172989 pbc="T T T"
O        0.00000000       0.00000000       0.00000000
H        0.96784832       0.00000000       0.00000000
H       -0.02588385       0.99617690       0.00000000
3
Lattice="15.0 0.0 0.0 0.0 15.0 0.0 0.0 0.0 15.0" Properties=species:S:1:pos:R:3 energy=0.1591082938 pbc="T T T"
O        0.00000000       0.00000000       0.00000000
H        1.01140202       0.00000000       0.00000000
H       -0.38343278       0.91914292       0.00000000
3
Lattice="15.0 0.0 0.0 0.0 15.0 0.0 0.0 0.0 15.0" Properties=species:S:1:pos:R:3 energy=0.8493865457 pbc="T T T"
O        0.00000000       0.00000000       0.00000000
H        1.10039279       0.00000000       0.00000000
H       -0.20993596       1.10220775       0.00000000
3
Lattice="15.0 0.0 0.0 0.0 15.0 0.0 0.0 0.0 15.0" Properties=species:S:1:pos:R:3 energy=0.64684239 pbc="T T T"
O        0.00000000       0.00000000       0.00000000
H        1.08519726       0.00000000       0.00000000
H        0.00870381       1.07709318       0.00000000
3
Lattice="15.0 0.0 0.0 0.0 15.0 0.0 0.0 0.0 15.0" Properties=species:S:1:pos:R:3 energy=1.0479459449 pbc="T T T"
O        0.00000000       0.00000000       0.00000000
H        0.83537012       0.00000000       0.00000000
H       -0.65375753       0.82144065       0.00000000
3
Lattice="15.0 0.0 0.0 0.0 15.0 0.0 0.0 0.0 15.0" Properties=species:S:1:pos:R:3 energy=0.2252992147 pbc="T T T"
O        0.00000000       0.00000000       0.00000000
H        0.97012807       0.00000000       0.00000000
H       -0.30614427       1.01360295       0.00000000
3
Lattice="15.0 0.0 0.0 0.0 15.0 0.0 0.0 0.0 15.0" Properties=species:S:1:pos:R:3 energy=1.3666976824 pbc="T T T"
O        0.00000000       0.00000000       0.00000000
H        1.13496082       0.00000000       0.00000000
H       -0.08706844       1.18656231       0.00000000
3
Lattice="15.0 0.0 0.0 0.0 15.0 0.0 0.0 0.0 15.0" Properties=species:S:1:pos:R:3 energy=0.0327842452 pbc="T T T"
O        0.00000000       0.00000000       0.00000000
H        0.94768717       0.00000000       0.00000000
H       -0.25689035       0.89022113       0.00000000
3
Lattice="15.0 0.0 0.0 0.0 15.0 0.0 0.0 0.0 15.0" Properties=species:S:1:pos:R:3 energy=0.8803116518 pbc="T T T"
O        0.00000000       0.00000000       0.00000000
H        0.90502639       0.00000000       0.00000000
H        0.06935791       0.84664431       0.00000000
3
Lattice="15.0 0.0 0.0 0.0 15.0 0.0 0.0 0.0 15.0" Properties=species:S:1:pos:R:3 energy=0.13898718 pbc="T T T"
O        0.00000000       0.00000000       0.00000000
H        0.98012103       0.00000000       0.00000000
H       -0.43770912       0.82644423       0.00000000
3
Lattice="15.0 0.0 0.0 0.0 15.0 0.0 0.0 0.0 15.0" Properties=species:S:1:pos:R:3 energy=0.0057150224 pbc="T T T"
O        0.00000000       0.00000000       0.00000000
H        0.94795368       0.00000000       0.00000000
H       -0.24314521       0.91720106       0.00000000
3
Lattice="15.0 0.0 0.0 0.0 15.0 0.0 0.0 0.0 15.0" Properties=species:S:1:pos:R:3 energy=1.0869024236 pbc="T T T"
O        0.00000000       0.00000000       0.00000000
H        0.91502681       0.00000000       0.00000000
H       -0.39719691       0.69536484       0.00000000
3
Lattice="15.0 0.0 0.0 0.0 15.0 0.0 0.0 0.0 15.0" Properties=species:S:1:pos:R:3 energy=0.0142107845 pbc="T T T"
O        0.00000000       0.00000000       0.00000000
H        0.97315869       0.00000000       0.00000000
H       -0.18199332       0.95285973       0.00000000
3
Lattice="15.0 0.0 0.0 0.0 15.0 0.0 0.0 0.0 15.0" Properties=species:S:1:pos:R:3 energy=0.6880369317 pbc="T T T"
O        0.00000000       0.00000000       0.00000000
H        1.13930014       0.00000000       0.00000000
H       -0.37137361       0.92532976       0.00000000
3
Lattice="15.0 0.0 0.0 0.0 15.0 0.0 0.0 0.0 15.0" Properties=species:S:1:pos:R:3 energy=0.4602977537 pbc="T T T"
O        0.00000000       0.00000000       0.00000000
H        0.93082316       0.00000000       0.00000000
H        0.12954883       0.92325143       0.00000000
3
Lattice="15.0 0.0 0.0 0.0 15.0 0.0 0.0 0.0 15.0" Properties=species:S:1:pos:R:3 energy=1.0638462136 pbc="T T T"
O        0.00000000       0.00000000       0.00000000
H        0.85255684       0.00000000       0.00000000
H       -0.16236934       0.80901401       0.00000000
3
Lattice="15.0 0.0 0.0 0.0 15.0 0.0 0.0 0.0 15.0" Properties=species:S:1:pos:R:3 energy=0.1087051088 pbc="T T T"
O        0.00000000       0.00000000       0.00000000
H        0.91227236       0.00000000       0.00000000
H       -0.28388789       0.87403965       0.00000000
3
Lattice="15.0 0.0 0.0 0.0 15.0 0.0 0.0 0.0 15.0" Properties=species:S:1:pos:R:3 energy=0.0813193386 pbc="T T T"
O        0.00000000       0.00000000       0.00000000
H        1.01520912       0.00000000       0.00000000
H       -0.23406123       0.94914432       0.00000000
3
Lattice="15.0 0.0 0.0 0.0 15.0 0.0 0.0 0.0 15.0" Properties=species:S:1:pos:R:3 energy=0.4409201693 pbc="T T T"
O        0.00000000       0.00000000       0.00000000
H        0.93697685       0.00000000       0.00000000
H        0.10403485       0.90973077       0.00000000
3
Lattice="15.0 0.0 0.0 0.0 15.0 0.0 0.0 0.0 15.0" Properties=species:S:1:pos:R:3 energy=0.0416971769 pbc="T T T"
O        0.00000000       0.00000000       0.00000000
H        0.94349247       0.00000000       0.00000000
H       -0.28075562       0.95404529       0.00000000
3
Lattice="15.0 0.0 0.0 0.0 15.0 0.0 0.0 0.0 15.0" Properties=species:S:1:pos:R:3 energy=0.0418985112 pbc="T T T"
O        0.00000000       0.00000000       0.00000000
H        0.94855419       0.00000000       0.00000000
H       -0.33253596       0.87205506       0.00000000
3
Lattice="15.0 0.0 0.0 0.0 15.0 0.0 0.0 0.0 15.0" Properties=species:S:1:pos:R:3 energy=0.1344581114 pbc="T T T"
O        0.00000000       0.00000000       0.00000000
H        0.96772751       0.00000000       0.00000000
H       -0.00933078       0.95738153       0.00000000
3
Lattice="15.0 0.0 0.0 0.0 15.0 0.0 0.0 0.0 15.0" Properties=species:S:1:pos:R:3 energy=0.0153820714 pbc="T T T"
O        0.00000000       0.00000000       0.00000000
H        0.96454524       0.00000000       0.00000000
H       -0.20823089       0.91441157       0.00000000
3
Lattice="15.0 0.0 0.0 0.0 15.0 0.0 0.0 0.0 15.0" Properties=species:S:1:pos:R:3 energy=1.00339551 pbc="T T T"
O        0.00000000       0.00000000       0.00000000
H        1.00355843       0.00000000       0.00000000
H        0.36406525       0.90717243       0.00000000
3
Lattice="15.0 0.0 0.0 0.0 15.0 0.0 0.0 0.0 15.0" Properties=species:S:1:pos:R:3 energy=0.0443825216 pbc="T T T"
O        0.00000000       0.00000000       0.00000000
H        0.95711365       0.00000000       0.00000000
H       -0.36314648       0.87325508       0.00000000
3
Lattice="15.0 0.0 0.0 0.0 15.0 0.0 0.0 0.0 15.0" Properties=species:S:1:pos:R:3 energy=0.7365976446 pbc="T T T"
O        0.00000000       0.00000000       0.00000000
H        1.05778833       0.00000000       0.00000000
H       -0.39121506       0.75340733       0.00000000
3
Lattice="15.0 0.0 0.0 0.0 15.0 0.0 0.0 0.0 15.0" Properties=species:S:1:pos:R:3 energy=0.0150004888 pbc="T T T"
O        0.00000000       0.00000000       0.00000000
H        0.95378389       0.00000000       0.00000000
H       -0.31389128       0.90219300       0.00000000
3
Lattice="15.0 0.0 0.0 0.0 15.0 0.0 0.0 0.0 15.0" Properties=species:S:1:pos:R:3 energy=0.0595363493 pbc="T T T"
O        0.00000000       0.00000000       0.00000000
H        1.00072825       0.00000000       0.00000000
H       -0.26724059       0.94550657       0.00000000
3
Lattice="15.0 0.0 0.0 0.0 15.0 0.0 0.0 0.0 15.0" Properties=species:S:1:pos:R:3 energy=0.6484154557 pbc="T T T"
O        0.00000000       0.00000000       0.00000000
H        0.98863109       0.00000000       0.00000000
H       -0.37512214       0.74483871       0.00000000
3
Lattice="15.0 0.0 0.0 0.0 15.0 0.0 0.0 0.0 15.0" Properties=species:S:1:pos:R:3 energy=1.1062476129 pbc="T T T"
O        0.00000000       0.00000000       0.00000000