3
Lattice="15.0 0.0 0.0 0.0 15.0 0.0 0.0 0.0 15.0" Properties=species:S:1:pos:R:3 energy=-0.0010016588 pbc="T T T"
O        0.00000000       0.00000000       0.00000000
H        0.95454173       0.00000000       0.00000000
H       -0.19271003       0.95610648       0.00000000
3
Lattice="15.0 0.0 0.0 0.0 15.0 0.0 0.0 0.0 15.0" Properties=species:S:1:pos:R:3 energy=-0.0131978181 pbc="T T T"
O        0.00000000       0.00000000       0.00000000
H        1.00374226       0.00000000       0.00000000
H       -0.16526792       0.98808479       0.00000000
3
Lattice="15.0 0.0 0.0 0.0 15.0 0.0 0.0 0.0 15.0" Properties=species:S:1:pos:R:3 energy=-0.0043628415 pbc="T T T"
O        0.00000000       0.00000000       0.00000000
H        0.97479207       0.00000000       0.00000000
H       -0.14879549       0.95764574       0.00000000
3
Lattice="15.0 0.0 0.0 0.0 15.0 0.0 0.0 0.0 15.0" Properties=species:S:1:pos:R:3 energy=-0.0028167656 pbc="T T T"
O        0.00000000       0.00000000       0.00000000
H        0.92285746       0.00000000       0.00000000
H       -0.24543654       0.89140223       0.00000000
3
Lattice="15.0 0.0 0.0 0.0 15.0 0.0 0.0 0.0 15.0" Properties=species:S:1:pos:R:3 energy=0.0217681652 pbc="T T T"
O        0.00000000       0.00000000       0.00000000
H        1.18702164       0.00000000       0.00000000
H       -0.20088311       0.77731456       0.00000000
3
Lattice="15.0 0.0 0.0 0.0 15.0 0.0 0.0 0.0 15.0" Properties=species:S:1:pos:R:3 energy=0.0000684402 pbc="T T T"
O        0.00000000       0.00000000       0.00000000
H        0.96251269       0.00000000       0.00000000
H       -0.24342396       0.93555342       0.00000000
3
Lattice="15.0 0.0 0.0 0.0 15.0 0.0 0.0 0.0 15.0" Properties=species:S:1:pos:R:3 energy=0.0226021900 pbc="T T T"
O        0.00000000       0.00000000       0.00000000
H        1.02175254       0.00000000       0.00000000
H       -0.38984181       0.94566958       0.00000000
3
Lattice="15.0 0.0 0.0 0.0 15.0 0.0 0.0 0.0 15.0" Properties=species:S:1:pos:R:3 energy=-0.0156867394 pbc="T T T"
O        0.00000000       0.00000000       0.00000000
H        1.08881403       0.00000000       0.00000000
H       -0.08723725       0.88912575       0.00000000
3
Lattice="15.0 0.0 0.0 0.0 15.0 0.0 0.0 0.0 15.0" Properties=species:S:1:pos:R:3 energy=-0.0083484732 pbc="T T T"
O        0.00000000       0.00000000       0.00000000
H        0.92102114       0.00000000       0.00000000
H       -0.35694496       0.88673775       0.00000000
3
Lattice="15.0 0.0 0.0 0.0 15.0 0.0 0.0 0.0 15.0" Properties=species:S:1:pos:R:3 energy=-0.0130870821 pbc="T T T"
O        0.00000000       0.00000000       0.00000000
H        0.94883721       0.00000000       0.00000000
H       -0.06894244       1.00628088       0.00000000
3
Lattice="15.0 0.0 0.0 0.0 15.0 0.0 0.0 0.0 15.0" Properties=species:S:1:pos:R:3 energy=0.0050788932 pbc="T T T"
O        0.00000000       0.00000000       0.00000000
H        0.99171812       0.00000000       0.00000000
H       -0.29965857       0.94655308       0.00000000
3
Lattice="15.0 0.0 0.0 0.0 15.0 0.0 0.0 0.0 15.0" Properties=species:S:1:pos:R:3 energy=-0.0000418536 pbc="T T T"
O        0.00000000       0.00000000       0.00000000
H        0.96101293       0.00000000       0.00000000
H       -0.28697592       0.91199476       0.00000000
3
Lattice="15.0 0.0 0.0 0.0 15.0 0.0 0.0 0.0 15.0" Properties=species:S:1:pos:R:3 energy=-0.0061484383 pbc="T T T"
O        0.00000000       0.00000000       0.00000000
H        0.98984309       0.00000000       0.00000000
H       -0.15063495       0.95408259       0.00000000
3
Lattice="15.0 0.0 0.0 0.0 15.0 0.0 0.0 0.0 15.0" Properties=species:S:1:pos:R:3 energy=-0.0026995258 pbc="T T T"
O        0.00000000       0.00000000       0.00000000
H        0.96351702       0.00000000       0.00000000
H       -0.04246021       0.96027586       0.00000000
3
Lattice="15.0 0.0 0.0 0.0 15.0 0.0 0.0 0.0 15.0" Properties=species:S:1:pos:R:3 energy=-0.0001300891 pbc="T T T"
O        0.00000000       0.00000000       0.00000000
H        0.95779477       0.00000000       0.00000000
H       -0.31666096       0.90508130       0.00000000
3
Lattice="15.0 0.0 0.0 0.0 15.0 0.0 0.0 0.0 15.0" Properties=species:S:1:pos:R:3 energy=0.0011270418 pbc="T T T"
O        0.00000000       0.00000000       0.00000000
H        0.95421977       0.00000000       0.00000000
H       -0.28816049       0.93361771       0.00000000
3
Lattice="15.0 0.0 0.0 0.0 15.0 0.0 0.0 0.0 15.0" Properties=species:S:1:pos:R:3 energy=-0.0002892612 pbc="T T T"
O        0.00000000       0.00000000       0.00000000
H        0.95731196       0.00000000       0.00000000
H       -0.26157904       0.91717425       0.00000000
3
Lattice="15.0 0.0 0.0 0.0 15.0 0.0 0.0 0.0 15.0" Properties=species:S:1:pos:R:3 energy=-0.0707933997 pbc="T T T"
O        0.00000000       0.00000000       0.00000000
H        0.79675104       0.00000000       0.00000000
H       -0.33584779       0.80000597       0.00000000
3
Lattice="15.0 0.0 0.0 0.0 15.0 0.0 0.0 0.0 15.0" Properties=species:S:1:pos:R:3 energy=0.0006707926 pbc="T T T"
O        0.00000000       0.00000000       0.00000000
H        0.93899471       0.00000000       0.00000000
H       -0.37633731       0.90485660       0.00000000
3
Lattice="15.0 0.0 0.0 0.0 15.0 0.0 0.0 0.0 15.0" Properties=species:S:1:pos:R:3 energy=0.0025976452 pbc="T T T"
O        0.00000000       0.00000000       0.00000000
H        0.96566398       0.00000000       0.00000000
H       -0.32881008       0.91256625       0.00000000
3
Lattice="15.0 0.0 0.0 0.0 15.0 0.0 0.0 0.0 15.0" Properties=species:S:1:pos:R:3 energy=-0.0395995571 pbc="T T T"
O        0.00000000       0.00000000       0.00000000
H        1.01435245       0.00000000       0.00000000
H        0.35168060       0.85397615       0.00000000
3
Lattice="15.0 0.0 0.0 0.0 15.0 0.0 0.0 0.0 15.0" Properties=species:S:1:pos:R:3 energy=-0.0141070610 pbc="T T T"
O        0.00000000       0.00000000       0.00000000
H        0.99846998       0.00000000       0.00000000
H       -0.15955629       0.99390515       0.00000000
3
Lattice="15.0 0.0 0.0 0.0 15.0 0.0 0.0 0.0 15.0" Properties=species:S:1:pos:R:3 energy=0.0059969397 pbc="T T T"
O        0.00000000       0.00000000       0.00000000
H        0.93253099       0.00000000       0.00000000
H       -0.16967018       0.91496893       0.00000000
3
Lattice="15.0 0.0 0.0 0.0 15.0 0.0 0.0 0.0 15.0" Properties=species:S:1:pos:R:3 energy=0.0014072732 pbc="T T T"
O        0.00000000       0.00000000       0.00000000
H        0.97189489       0.00000000       0.00000000
H       -0.27481146       0.93197599       0.00000000
3
Lattice="15.0 0.0 0.0 0.0 15.0 0.0 0.0 0.0 15.0" Properties=species:S:1:pos:R:3 energy=-0.0068820070 pbc="T T T"
O        0.00000000       0.00000000       0.00000000
H        0.93774922       0.00000000       0.00000000
H       -0.33507065       0.88038928       0.00000000
3
Lattice="15.0 0.0 0.0 0.0 15.0 0.0 0.0 0.0 15.0" Properties=species:S:1:pos:R:3 energy=-0.1901643434 pbc="T T T"
O        0.00000000       0.00000000       0.00000000
H        0.94055153       0.00000000       0.00000000
H        0.14975467       1.22976087       0.00000000
3
Lattice="15.0 0.0 0.0 0.0 15.0 0.0 0.0 0.0 15.0" Properties=species:S:1:pos:R:3 energy=-0.0797878549 pbc="T T T"
O        0.00000000       0.00000000       0.00000000
H        1.02138314       0.00000000       0.00000000
H        0.03969805       1.04212166       0.00000000
3
Lattice="15.0 0.0 0.0 0.0 15.0 0.0 0.0 0.0 15.0" Properties=species:S:1:pos:R:3 energy=0.0005337703 pbc="T T T"
O        0.00000000       0.00000000       0.00000000
H        0.99025091       0.00000000       0.00000000
H       -0.27250595       1.01532176       0.00000000
3
Lattice="15.0 0.0 0.0 0.0 15.0 0.0 0.0 0.0 15.0" Properties=species:S:1:pos:R:3 energy=0.0004077098 pbc="T T T"
O        0.00000000       0.00000000       0.00000000
H        0.94580457       0.00000000       0.00000000
H       -0.29467352       0.92892629       0.00000000
3
Lattice="15.0 0.0 0.0 0.0 15.0 0.0 0.0 0.0 15.0" Properties=species:S:1:pos:R:3 energy=-0.0009912262 pbc="T T T"
O        0.00000000       0.00000000       0.00000000
H        0.94806938       0.00000000       0.00000000
H       -0.26065121       0.91206498       0.00000000
3
Lattice="15.0 0.0 0.0 0.0 15.0 0.0 0.0 0.0 15.0" Properties=species:S:1:pos:R:3 energy=-0.0019133445 pbc="T T T"
O        0.00000000       0.00000000       0.00000000
H        0.92826798       0.00000000       0.00000000
H       -0.25590615       0.91009137       0.00000000
3
Lattice="15.0 0.0 0.0 0.0 15.0 0.0 0.0 0.0 15.0" Properties=species:S:1:pos:R:3 energy=0.0317709857 pbc="T T T"
O        0.00000000       0.00000000       0.00000000
H        1.22207863       0.00000000       0.00000000
H       -0.43850946       1.08111520       0.00000000
3
Lattice="15.0 0.0 0.0 0.0 15.0 0.0 0.0 0.0 15.0" Properties=species:S:1:pos:R:3 energy=0.0003947910 pbc="T T T"
O        0.00000000       0.00000000       0.00000000
H        0.96127896       0.00000000       0.00000000
H       -0.32915617       0.90067454       0.00000000
3
Lattice="15.0 0.0 0.0 0.0 15.0 0.0 0.0 0.0 15.0" Properties=species:S:1:pos:R:3 energy=0.0050677934 pbc="T T T"
O        0.00000000       0.00000000       0.00000000
H        0.97092860       0.00000000       0.00000000
H       -0.36524255       0.90109090       0.00000000
3
Lattice="15.0 0.0 0.0 0.0 15.0 0.0 0.0 0.0 15.0" Properties=species:S:1:pos:R:3 energy=0.0007552727 pbc="T T T"
O        0.00000000       0.00000000       0.00000000
H        0.96139675       0.00000000       0.00000000
H       -0.32883037       0.90325724       0.00000000
3
Lattice="15.0 0.0 0.0 0.0 15.0 0.0 0.0 0.0 15.0" Properties=species:S:1:pos:R:3 energy=-0.0716800739 pbc="T T T"
O        0.00000000       0.00000000       0.00000000
H        1.04349355       0.00000000       0.00000000
H        0.02030417       1.01581399       0.00000000
3
Lattice="15.0 0.0 0.0 0.0 15.0 0.0 0.0 0.0 15.0" Properties=species:S:1:pos:R:3 energy=0.0002395366 pbc="T T T"
O        0.00000000       0.00000000       0.00000000
H        0.95456070       0.00000000       0.00000000
H       -0.36123281       0.89394453       0.00000000
3
Lattice="15.0 0.0 0.0 0.0 15.0 0.0 0.0 0.0 15.0" Properties=species:S:1:pos:R:3 energy=0.0007280147 pbc="T T T"
O        0.00000000       0.00000000       0.00000000
H        0.96128842       0.00000000       0.00000000
H       -0.20877791       0.91718608       0.00000000
3
Lattice="15.0 0.0 0.0 0.0 15.0 0.0 0.0 0.0 15.0" Properties=species:S:1:pos:R:3 energy=-0.0000105317 pbc="T T T"
O        0.00000000       0.00000000       0.00000000
H        0.96525973       0.00000000       0.00000000
H       -0.25146445       0.91665442       0.00000000
3
Lattice="15.0 0.0 0.0 0.0 15.0 0.0 0.0 0.0 15.0" Properties=species:S:1:pos:R:3 energy=0.0001286566 pbc="T T T"
O        0.00000000       0.00000000       0.00000000
H        1.03331773       0.00000000       0.00000000
H        0.02001502       0.87990115       0.00000000
3
Lattice="15.0 0.0 0.0 0.0 15.0 0.0 0.0 0.0 15.0" Properties=species:S:1:pos:R:3 energy=-0.0026657023 pbc="T T T"
O        0.00000000       0.00000000       0.00000000
H        0.90036300       0.00000000       0.00000000
H       -0.24593188       0.90448092       0.00000000
3
Lattice="15.0 0.0 0.0 0.0 15.0 0.0 0.0 0.0 15.0" Properties=species:S:1:pos:R:3 energy=-0.2068848845 pbc="T T T"
O        0.00000000       0.00000000       0.00000000
H        0.96414419       0.00000000       0.00000000
H        0.23404044       1.14482722       0.00000000
3
Lattice="15.0 0.0 0.0 0.0 15.0 0.0 0.0 0.0 15.0" Properties=species:S:1:pos:R:3 energy=-0.2318000112 pbc="T T T"
O        0.00000000       0.00000000       0.00000000
H        1.06832170       0.00000000       0.00000000
H        0.25886460       1.03684583       0.00000000
3
Lattice="15.0 0.0 0.0 0.0 15.0 0.0 0.0 0.0 15.0" Properties=species:S:1:pos:R:3 energy=0.0003034198 pbc="T T T"
O        0.00000000       0.00000000       0.00000000
H        0.97747166       0.00000000       0.00000000
H       -0.26600878       0.90300887       0.00000000
3
Lattice="15.0 0.0 0.0 0.0 15.0 0.0 0.0 0.0 15.0" Properties=species:S:1:pos:R:3 energy=-0.1194470406 pbc="T T T"
O        0.00000000       0.00000000       0.00000000
H        0.85647443       0.00000000       0.00000000
H       -0.40461665       0.70070063       0.00000000
3
Lattice="15.0 0.0 0.0 0.0 15.0 0.0 0.0 0.0 15.0" Properties=species:S:1:pos:R:3 energy=0.0149343666 pbc="T T T"
O        0.00000000       0.00000000       0.00000000
H        0.88792357       0.00000000       0.00000000
H       -0.52502074       0.90995496       0.00000000
3
Lattice="15.0 0.0 0.0 0.0 15.0 0.0 0.0 0.0 15.0" Properties=species:S:1:pos:R:3 energy=-0.0021573116 pbc="T T T"
O        0.00000000       0.00000000       0.00000000
H        0.97123662       0.00000000       0.00000000
H       -0.19119788       0.95167059       0.00000000
3
Lattice="15.0 0.0 0.0 0.0 15.0 0.0 0.0 0.0 15.0" Properties=species:S:1:pos:R:3 energy=-0.0117458660 pbc="T T T"
O        0.00000000       0.00000000       0.00000000
H        0.93437600       0.00000000       0.00000000
H       -0.34284139       0.86130643       0.00000000
3
Lattice="15.0 0.0 0.0 0.0 15.0 0.0 0.0 0.0 15.0" Properties=species:S:1:pos:R:3 energy=-0.0016968177 pbc="T T T"
O        0.00000000       0.00000000       0.00000000
H        0.96167797       0.00000000       0.00000000
H       -0.20389674       0.95933910       0.00000000
3
Lattice="15.0 0.0 0.0 0.0 15.0 0.0 0.0 0.0 15.0" Properties=species:S:1:pos:R:3 energy=0.0008109535 pbc="T T T"
O        0.00000000       0.00000000       0.00000000
H        0.97564333       0.00000000       0.00000000
H       -0.27287819       0.91372346       0.00000000
3
Lattice="15.0 0.0 0.0 0.0 15.0 0.0 0.0 0.0 15.0" Properties=species:S:1:pos:R:3 energy=-0.0202348090 pbc="T T T"
O        0.00000000       0.00000000       0.00000000
H        1.13662447       0.00000000       0.00000000
H       -0.33186013       1.18867410       0.00000000
3
Lattice="15.0 0.0 0.0 0.0 15.0 0.0 0.0 0.0 15.0" Properties=species:S:1:pos:R:3 energy=0.0054291144 pbc="T T T"
O        0.00000000       0.00000000       0.00000000
H        0.91502629       0.00000000       0.00000000
H       -0.18974267       0.89142740       0.00000000
3
Lattice="15.0 0.0 0.0 0.0 15.0 0.0 0.0 0.0 15.0" Properties=species:S:1:pos:R:3 energy=-0.0051012012 pbc="T T T"
O        0.00000000       0.00000000       0.00000000
H        0.92737171       0.00000000       0.00000000
H       -0.27656859       0.89153811       0.00000000
3
Lattice="15.0 0.0 0.0 0.0 15.0 0.0 0.0 0.0 15.0" Properties=species:S:1:pos:R:3 energy=-0.0013039376 pbc="T T T"
O        0.00000000       0.00000000       0.00000000
H        0.76011170       0.00000000       0.00000000
H       -0.21803296       0.88613341       0.00000000
3
Lattice="15.0 0.0 0.0 0.0 15.0 0.0 0.0 0.0 15.0" Properties=species:S:1:pos:R:3 energy=0.0036424070 pbc="T T T"
O        0.00000000       0.00000000       0.00000000
H        0.94542191       0.00000000       0.00000000
H       -0.62253977       0.75399666       0.00000000
3
Lattice="15.0 0.0 0.0 0.0 15.0 0.0 0.0 0.0 15.0" Properties=species:S:1:pos:R:3 energy=0.0404900350 pbc="T T T"
O        0.00000000       0.00000000       0.00000000
H        0.98842034       0.00000000       0.00000000
H       -0.59606375       0.81853102       0.00000000
3
Lattice="15.0 0.0 0.0 0.0 15.0 0.0 0.0 0.0 15.0" Properties=species:S:1:pos:R:3 energy=0.0061153243 pbc="T T T"
O        0.00000000       0.00000000       0.00000000
H        0.93768686       0.00000000       0.00000000
H       -0.13821536       0.93573048       0.00000000
3
Lattice="15.0 0.0 0.0 0.0 15.0 0.0 0.0 0.0 15.0" Properties=species:S:1:pos:R:3 energy=-0.0007867622 pbc="T T T"
O        0.00000000       0.00000000       0.00000000
H        0.94230047       0.00000000       0.00000000
H       -0.24298577       0.90805105       0.00000000
3
Lattice="15.0 0.0 0.0 0.0 15.0 0.0 0.0 0.0 15.0" Properties=species:S:1:pos:R:3 energy=0.0599125977 pbc="T T T"
O        0.00000000       0.00000000       0.00000000
H        0.96558480       0.00000000       0.00000000
H       -0.80464670       0.63535578       0.00000000
3
Lattice="15.0 0.0 0.0 0.0 15.0 0.0 0.0 0.0 15.0" Properties=species:S:1:pos:R:3 energy=-0.0088568653 pbc="T T T"
O        0.00000000       0.00000000       0.00000000
H        0.92244613       0.00000000       0.00000000
H       -0.31798932       0.88362003       0.00000000
3
Lattice="15.0 0.0 0.0 0.0 15.0 0.0 0.0 0.0 15.0" Properties=species:S:1:pos:R:3 energy=0.0003704772 pbc="T T T"
O        0.00000000       0.00000000       0.00000000
H        0.96949064       0.00000000       0.00000000
H       -0.27955617       0.91030884       0.00000000
3
Lattice="15.0 0.0 0.0 0.0 15.0 0.0 0.0 0.0 15.0" Properties=species:S:1:pos:R:3 energy=-0.0024906757 pbc="T T T"
O        0.00000000       0.00000000       0.00000000
H        0.94710355       0.00000000       0.00000000
H       -0.25867895       0.89014128       0.00000000
3
Lattice="15.0 0.0 0.0 0.0 15.0 0.0 0.0 0.0 15.0" Properties=species:S:1:pos:R:3 energy=-0.0507457537 pbc="T T T"
O        0.00000000       0.00000000       0.00000000
H        0.91872252       0.00000000       0.00000000
H       -0.56399430       0.72014876       0.00000000
3
Lattice="15.0 0.0 0.0 0.0 15.0 0.0 0.0 0.0 15.0" Properties=species:S:1:pos:R:3 energy=0.0055297935 pbc="T T T"
O        0.00000000       0.00000000       0.00000000
H        1.02625353       0.00000000       0.00000000
H       -0.29103486       0.88478245       0.00000000
3
Lattice="15.0 0.0 0.0 0.0 15.0 0.0 0.0 0.0 15.0" Properties=species:S:1:pos:R:3 energy=-0.0036884348 pbc="T T T"
O        0.00000000       0.00000000       0.00000000
H        0.94499892       0.00000000       0.00000000
H       -0.31464514       0.89279427       0.00000000
3
Lattice="15.0 0.0 0.0 0.0 15.0 0.0 0.0 0.0 15.0" Properties=species:S:1:pos:R:3 energy=-0.0015733399 pbc="T T T"
O        0.00000000       0.00000000       0.00000000
H        0.93458420       0.00000000       0.00000000
H       -0.24615281       0.90200732       0.00000000
3
Lattice="15.0 0.0 0.0 0.0 15.0 0.0 0.0 0.0 15.0" Properties=species:S:1:pos:R:3 energy=0.0840267325 pbc="T T T"
O        0.00000000       0.00000000       0.00000000
H        0.99042428       0.00000000       0.00000000
H       -0.74950824       0.74484235       0.00000000
3
Lattice="15.0 0.0 0.0 0.0 15.0 0.0 0.0 0.0 15.0" Properties=species:S:1:pos:R:3 energy=0.0161518332 pbc="T T T"
O        0.00000000       0.00000000       0.00000000
H        0.95335122       0.00000000       0.00000000
H       -0.06510232       0.91278134       0.00000000
3
Lattice="15.0 0.0 0.0 0.0 15.0 0.0 0.0 0.0 15.0" Properties=species:S:1:pos:R:3 energy=0.0055466412 pbc="T T T"
O        0.00000000       0.00000000       0.00000000
H        0.99332027       0.00000000       0.00000000
H       -0.30546730       0.93811205       0.00000000
3
Lattice="15.0 0.0 0.0 0.0 15.0 0.0 0.0 0.0 15.0" Properties=species:S:1:pos:R:3 energy=-0.0037397701 pbc="T T T"
O        0.00000000       0.00000000       0.00000000
H        0.98080115       0.00000000       0.00000000
H       -0.18716061       0.95671766       0.00000000
3
Lattice="15.0 0.0 0.0 0.0 15.0 0.0 0.0 0.0 15.0" Properties=species:S:1:pos:R:3 energy=-0.0007857912 pbc="T T T"
O        0.00000000       0.00000000       0.00000000
H        0.97739185       0.00000000       0.00000000
H       -0.19064334       0.93170031       0.00000000
3
Lattice="15.0 0.0 0.0 0.0 15.0 0.0 0.0 0.0 15.0" Properties=species:S:1:pos:R:3 energy=0.1980530050 pbc="T T T"
O        0.00000000       0.00000000       0.00000000
H        0.82474619       0.00000000       0.00000000
H        0.10907257       0.85636214       0.00000000
3
Lattice="15.0 0.0 0.0 0.0 15.0 0.0 0.0 0.0 15.0" Properties=species:S:1:pos:R:3 energy=-0.0010491652 pbc="T T T"
O        0.00000000       0.00000000       0.00000000
H        0.96420501       0.00000000       0.00000000
H       -0.20602751       0.94837856       0.00000000
3
Lattice="15.0 0.0 0.0 0.0 15.0 0.0 0.0 0.0 15.0" Properties=species:S:1:pos:R:3 energy=0.0013973422 pbc="T T T"
O        0.00000000       0.00000000       0.00000000
H        0.95095680       0.00000000       0.00000000
H       -0.19166498       0.92916205       0.00000000
3
Lattice="15.0 0.0 0.0 0.0 15.0 0.0 0.0 0.0 15.0" Properties=species:S:1:pos:R:3 energy=-0.0041030747 pbc="T T T"
O        0.00000000       0.00000000       0.00000000
H        0.96663319       0.00000000       0.00000000
H       -0.30060384       0.86709387       0.00000000
3
Lattice="15.0 0.0 0.0 0.0 15.0 0.0 0.0 0.0 15.0" Properties=species:S:1:pos:R:3 energy=-0.0009422175 pbc="T T T"
O        0.00000000       0.00000000       0.00000000
H        0.97460751       0.00000000       0.00000000
H       -0.18962021       0.93570904       0.00000000
3
Lattice="15.0 0.0 0.0 0.0 15.0 0.0 0.0 0.0 15.0" Properties=species:S:1:pos:R:3 energy=-0.0732255133 pbc="T T T"
O        0.00000000       0.00000000       0.00000000
H        1.06846535       0.00000000       0.00000000
H       -0.07323406       1.07239142       0.00000000
3
Lattice="15.0 0.0 0.0 0.0 15.0 0.0 0.0 0.0 15.0" Properties=species:S:1:pos:R:3 energy=-0.1223062500 pbc="T T T"
O        0.00000000       0.00000000       0.00000000
H        1.04571746       0.00000000       0.00000000
H        0.07510742       1.07094407       0.00000000
3
Lattice="15.0 0.0 0.0 0.0 15.0 0.0 0.0 0.0 15.0" Properties=species:S:1:pos:R:3 energy=0.0287907232 pbc="T T T"
O        0.00000000       0.00000000       0.00000000
H        1.03864292       0.00000000       0.00000000
H       -0.01646276       0.80554978       0.00000000
3
Lattice="15.0 0.0 0.0 0.0 15.0 0.0 0.0 0.0 15.0" Properties=species:S:1:pos:R:3 energy=0.0155324204 pbc="T T T"
O        0.00000000       0.00000000       0.00000000
H        0.89992309       0.00000000       0.00000000
H       -0.54967353       0.88464686       0.00000000
3
Lattice="15.0 0.0 0.0 0.0 15.0 0.0 0.0 0.0 15.0" Properties=species:S:1:pos:R:3 energy=0.0062635857 pbc="T T T"
O        0.00000000       0.00000000       0.00000000
H        0.98149517       0.00000000       0.00000000
H       -0.33472523       0.92137669       0.00000000
3
Lattice="15.0 0.0 0.0 0.0 15.0 0.0 0.0 0.0 15.0" Properties=species:S:1:pos:R:3 energy=-0.0003385041 pbc="T T T"
O        0.00000000       0.00000000       0.00000000
H        0.96024883       0.00000000       0.00000000
H       -0.20898652       0.94085812       0.00000000
3
Lattice="15.0 0.0 0.0 0.0 15.0 0.0 0.0 0.0 15.0" Properties=species:S:1:pos:R:3 energy=0.0301556449 pbc="T T T"
O        0.00000000       0.00000000       0.00000000
H        1.03378133       0.00000000       0.00000000
H       -0.75538289       0.50773944       0.00000000
3
Lattice="15.0 0.0 0.0 0.0 15.0 0.0 0.0 0.0 15.0" Properties=species:S:1:pos:R:3 energy=0.0011925602 pbc="T T T"
O        0.00000000       0.00000000       0.00000000
H        0.99143762       0.00000000       0.00000000
H       -0.31644117       0.87359552       0.00000000
3
Lattice="15.0 0.0 0.0 0.0 15.0 0.0 0.0 0.0 15.0" Properties=species:S:1:pos:R:3 energy=0.0431337625 pbc="T T T"
O        0.00000000       0.00000000       0.00000000
H        0.92670697       0.00000000       0.00000000
H        0.05317073       0.92096207       0.00000000
3
Lattice="15.0 0.0 0.0 0.0 15.0 0.0 0.0 0.0 15.0" Properties=species:S:1:pos:R:3 energy=-0.0048922843 pbc="T T T"
O        0.00000000       0.00000000       0.00000000
H        0.94013437       0.00000000       0.00000000
H       -0.29152305       0.88757493       0.00000000
3
Lattice="15.0 0.0 0.0 0.0 15.0 0.0 0.0 0.0 15.0" Properties=species:S:1:pos:R:3 energy=-0.0094902679 pbc="T T T"
O        0.00000000       0.00000000       0.00000000
H        0.89361933       0.00000000       0.00000000
H       -0.30335390       0.89835667       0.00000000
3
Lattice="15.0 0.0 0.0 0.0 15.0 0.0 0.0 0.0 15.0" Properties=species:S:1:pos:R:3 energy=-0.1033703882 pbc="T T T"
O        0.00000000       0.00000000       0.00000000
H        1.00355843       0.00000000       0.00000000
H        0.36406525       0.90717243       0.00000000
3
Lattice="15.0 0.0 0.0 0.0 15.0 0.0 0.0 0.0 15.0" Properties=species:S:1:pos:R:3 energy=-0.0759187397 pbc="T T T"
O        0.00000000       0.00000000       0.00000000
H        1.05670008       0.00000000       0.00000000
H       -0.05412696       1.07211858       0.00000000
3
Lattice="15.0 0.0 0.0 0.0 15.0 0.0 0.0 0.0 15.0" Properties=species:S:1:pos:R:3 energy=-0.0550981985 pbc="T T T"
O        0.00000000       0.00000000       0.00000000
H        0.90141833       0.00000000       0.00000000
H       -0.79532409       0.53351870       0.00000000
3
Lattice="15.0 0.0 0.0 0.0 15.0 0.0 0.0 0.0 15.0" Properties=species:S:1:pos:R:3 energy=0.0309753714 pbc="T T T"
O        0.00000000       0.00000000       0.00000000
H        1.00496555       0.00000000       0.00000000
H       -0.41133433       1.06584733       0.00000000
3
Lattice="15.0 0.0 0.0 0.0 15.0 0.0 0.0 0.0 15.0" Properties=species:S:1:pos:R:3 energy=-0.0020529519 pbc="T T T"
O        0.00000000       0.00000000       0.00000000
H        0.97035374       0.00000000       0.00000000
H       -0.19060174       0.95134442       0.00000000
3
Lattice="15.0 0.0 0.0 0.0 15.0 0.0 0.0 0.0 15.0" Properties=species:S:1:pos:R:3 energy=0.0382491290 pbc="T T T"
O        0.00000000       0.00000000       0.00000000
H        1.03438637       0.00000000       0.00000000
H       -0.02718376       0.77814702       0.00000000
3
Lattice="15.0 0.0 0.0 0.0 15.0 0.0 0.0 0.0 15.0" Properties=species:S:1:pos:R:3 energy=0.0128844958 pbc="T T T"
O        0.00000000       0.00000000       0.00000000
H        1.02468494       0.00000000       0.00000000
H       -0.33375194       0.97630423       0.00000000
3
Lattice="15.0 0.0 0.0 0.0 15.0 0.0 0.0 0.0 15.0" Properties=species:S:1:pos:R:3 energy=0.0026473526 pbc="T T T"
O        0.00000000       0.00000000       0.00000000
H        0.96026788       0.00000000       0.00000000
H       -0.17049000       0.91852525       0.00000000
3
Lattice="15.0 0.0 0.0 0.0 15.0 0.0 0.0 0.0 15.0" Properties=species:S:1:pos:R:3 energy=0.0239965379 pbc="T T T"
O        0.00000000       0.00000000       0.00000000
H        0.97110909       0.00000000       0.00000000
H       -0.52568512       0.85736395       0.00000000
3
Lattice="15.0 0.0 0.0 0.0 15.0 0.0 0.0 0.0 15.0" Properties=species:S:1:pos:R:3 energy=0.0048602924 pbc="T T T"
O        0.00000000       0.00000000       0.00000000
H        0.95334343       0.00000000       0.00000000
H       -0.61949222       0.74942256       0.00000000
3
Lattice="15.0 0.0 0.0 0.0 15.0 0.0 0.0 0.0 15.0" Properties=species:S:1:pos:R:3 energy=-0.0049795909 pbc="T T T"
O        0.00000000       0.00000000       0.00000000
H        0.95938143       0.00000000       0.00000000
H       -0.30317642       0.86937978       0.00000000
3
Lattice="15.0 0.0 0.0 0.0 15.0 0.0 0.0 0.0 15.0" Properties=species:S:1:pos:R:3 energy=-0.0058492260 pbc="T T T"
O        0.00000000       0.00000000       0.00000000
H        0.95765602       0.00000000       0.00000000
H       -0.15441236       0.98417863       0.00000000
3
Lattice="15.0 0.0 0.0 0.0 15.0 0.0 0.0 0.0 15.0" Properties=species:S:1:pos:R:3 energy=0.0036103296 pbc="T T T"
O        0.00000000       0.00000000       0.00000000
H        0.94490464       0.00000000       0.00000000
H       -0.18365724       0.91106568       0.00000000
3
Lattice="15.0 0.0 0.0 0.0 15.0 0.0 0.0 0.0 15.0" Properties=species:S:1:pos:R:3 energy=0.0031696653 pbc="T T T"
O        0.00000000       0.00000000       0.00000000
H        0.94948357       0.00000000       0.00000000
H       -0.51379794       0.82876730       0.00000000
3
Lattice="15.0 0.0 0.0 0.0 15.0 0.0 0.0 0.0 15.0" Properties=species:S:1:pos:R:3 energy=-0.0014887606 pbc="T T T"
O        0.00000000       0.00000000       0.00000000
H        0.96015421       0.00000000       0.00000000
H       -0.05515414       0.96012328       0.00000000
3
Lattice="15.0 0.0 0.0 0.0 15.0 0.0 0.0 0.0 15.0" Properties=species:S:1:pos:R:3 energy=0.0362119176 pbc="T T T"
O        0.00000000       0.00000000       0.00000000
H        1.01977438       0.00000000       0.00000000
H       -0.49891807       0.86862071       0.00000000
3
Lattice="15.0 0.0 0.0 0.0 15.0 0.0 0.0 0.0 15.0" Properties=species:S:1:pos:R:3 energy=0.0109383433 pbc="T T T"
O        0.00000000       0.00000000       0.00000000
H        0.98155568       0.00000000       0.00000000
H       -0.38760808       0.90720260       0.00000000
3
Lattice="15.0 0.0 0.0 0.0 15.0 0.0 0.0 0.0 15.0" Properties=species:S:1:pos:R:3 energy=0.0032134352 pbc="T T T"
O        0.00000000       0.00000000       0.00000000
H        0.94975155       0.00000000       0.00000000
H       -0.10579713       0.94907210       0.00000000
3
Lattice="15.0 0.0 0.0 0.0 15.0 0.0 0.0 0.0 15.0" Properties=species:S:1:pos:R:3 energy=0.0011774835 pbc="T T T"
O        0.00000000       0.00000000       0.00000000
H        0.98170528       0.00000000       0.00000000
H       -0.17255745       0.91144567       0.00000000
3
Lattice="15.0 0.0 0.0 0.0 15.0 0.0 0.0 0.0 15.0" Properties=species:S:1:pos:R:3 energy=0.0009120800 pbc="T T T"
O        0.00000000       0.00000000       0.00000000
H        0.95977283       0.00000000       0.00000000
H       -0.35034938       0.89680441       0.00000000
3
Lattice="15.0 0.0 0.0 0.0 15.0 0.0 0.0 0.0 15.0" Properties=species:S:1:pos:R:3 energy=-0.0042743912 pbc="T T T"
O        0.00000000       0.00000000       0.00000000
H        0.97065785       0.00000000       0.00000000
H       -0.03021894       0.95699487       0.00000000
3
Lattice="15.0 0.0 0.0 0.0 15.0 0.0 0.0 0.0 15.0" Properties=species:S:1:pos:R:3 energy=0.0199044385 pbc="T T T"