3
Lattice="15.0 0.0 0.0 0.0 15.0 0.0 0.0 0.0 15.0" Properties=species:S:1:pos:R:3 energy=0.0122504762 pbc="T T T"
O        0.00000000       0.00000000       0.00000000
H        0.95454173       0.00000000       0.00000000
H       -0.19271003       0.95610648       0.00000000
3
Lattice="15.0 0.0 0.0 0.0 15.0 0.0 0.0 0.0 15.0" Properties=species:S:1:pos:R:3 energy=0.0951620836 pbc="T T T"
O        0.00000000       0.00000000       0.00000000
H        1.00374226       0.00000000       0.00000000
H       -0.16526792       0.98808479       0.00000000
3
Lattice="15.0 0.0 0.0 0.0 15.0 0.0 0.0 0.0 15.0" Properties=species:S:1:pos:R:3 energy=0.025605536 pbc="T T T"
O        0.00000000       0.00000000       0.00000000
H        0.97479207       0.00000000       0.00000000
H       -0.14879549       0.95764574       0.00000000
3
Lattice="15.0 0.0 0.0 0.0 15.0 0.0 0.0 0.0 15.0" Properties=species:S:1:pos:R:3 energy=0.0688147435 pbc="T T T"
O        0.00000000       0.00000000       0.00000000
H        0.92285746       0.00000000       0.00000000
H       -0.24543654       0.89140223       0.00000000
3
Lattice="15.0 0.0 0.0 0.0 15.0 0.0 0.0 0.0 15.0" Properties=species:S:1:pos:R:3 energy=1.8131001214 pbc="T T T"
O        0.00000000       0.00000000       0.00000000
H        1.18702164       0.00000000       0.00000000
H       -0.20088311       0.77731456       0.00000000
3
Lattice="15.0 0.0 0.0 0.0 15.0 0.0 0.0 0.0 15.0" Properties=species:S:1:pos:R:3 energy=0.0020527943 pbc="T T T"
O        0.00000000       0.00000000       0.00000000
H        0.96251269       0.00000000       0.00000000
H       -0.24342396       0.93555342       0.00000000
3
Lattice="15.0 0.0 0.0 0.0 15.0 0.0 0.0 0.0 15.0" Properties=species:S:1:pos:R:3 energy=0.2481507081 pbc="T T T"
O        0.00000000       0.00000000       0.00000000
H        1.02175254       0.00000000       0.00000000
H       -0.38984181       0.94566958       0.00000000
3
Lattice="15.0 0.0 0.0 0.0 15.0 0.0 0.0 0.0 15.0" Properties=species:S:1:pos:R:3 energy=0.5049787352 pbc="T T T"
O        0.00000000       0.00000000       0.00000000
H        1.08881403       0.00000000       0.00000000
H       -0.08723725       0.88912575       0.00000000
3
Lattice="15.0 0.0 0.0 0.0 15.0 0.0 0.0 0.0 15.0" Properties=species:S:1:pos:R:3 energy=0.0697058538 pbc="T T T"
O        0.00000000       0.00000000       0.00000000
H        0.92102114       0.00000000       0.00000000
H       -0.35694496       0.88673775       0.00000000
3
Lattice="15.0 0.0 0.0 0.0 15.0 0.0 0.0 0.0 15.0" Properties=species:S:1:pos:R:3 energy=0.1244461309 pbc="T T T"
O        0.00000000       0.00000000       0.00000000
H        0.94883721       0.00000000       0.00000000
H       -0.06894244       1.00628088       0.00000000
3
Lattice="15.0 0.0 0.0 0.0 15.0 0.0 0.0 0.0 15.0" Properties=species:S:1:pos:R:3 energy=0.0665918345 pbc="T T T"
O        0.00000000       0.00000000       0.00000000
H        0.99171812       0.00000000       0.00000000
H       -0.29965857       0.94655308       0.00000000
3
Lattice="15.0 0.0 0.0 0.0 15.0 0.0 0.0 0.0 15.0" Properties=species:S:1:pos:R:3 energy=0.0066419048 pbc="T T T"
O        0.00000000       0.00000000       0.00000000
H        0.96101293       0.00000000       0.00000000
H       -0.28697592       0.91199476       0.00000000
3
Lattice="15.0 0.0 0.0 0.0 15.0 0.0 0.0 0.0 15.0" Properties=species:S:1:pos:R:3 energy=0.0385000132 pbc="T T T"
O        0.00000000       0.00000000       0.00000000
H        0.98984309       0.00000000       0.00000000
H       -0.15063495       0.95408259       0.00000000
3
Lattice="15.0 0.0 0.0 0.0 15.0 0.0 0.0 0.0 15.0" Properties=species:S:1:pos:R:3 energy=0.0967016004 pbc="T T T"
O        0.00000000       0.00000000       0.00000000
H        0.96351702       0.00000000       0.00000000
H       -0.04246021       0.96027586       0.00000000
3
Lattice="15.0 0.0 0.0 0.0 15.0 0.0 0.0 0.0 15.0" Properties=species:S:1:pos:R:3 energy=0.0156319726 pbc="T T T"
O        0.00000000       0.00000000       0.00000000
H        0.95779477       0.00000000       0.00000000
H       -0.31666096       0.90508130       0.00000000
3
Lattice="15.0 0.0 0.0 0.0 15.0 0.0 0.0 0.0 15.0" Properties=species:S:1:pos:R:3 energy=0.015256801 pbc="T T T"
O        0.00000000       0.00000000       0.00000000
H        0.95421977       0.00000000       0.00000000
H       -0.28816049       0.93361771       0.00000000
3
Lattice="15.0 0.0 0.0 0.0 15.0 0.0 0.0 0.0 15.0" Properties=species:S:1:pos:R:3 energy=0.0020947053 pbc="T T T"
O        0.00000000       0.00000000       0.00000000
H        0.95731196       0.00000000       0.00000000
H       -0.26157904       0.91717425       0.00000000
3
Lattice="15.0 0.0 0.0 0.0 15.0 0.0 0.0 0.0 15.0" Properties=species:S:1:pos:R:3 energy=1.284716786 pbc="T T T"
O        0.00000000       0.00000000       0.00000000
H        0.79675104       0.00000000       0.00000000
H       -0.33584779       0.80000597       0.00000000
3
Lattice="15.0 0.0 0.0 0.0 15.0 0.0 0.0 0.0 15.0" Properties=species:S:1:pos:R:3 energy=0.0657184116 pbc="T T T"
O        0.00000000       0.00000000       0.00000000
H        0.93899471       0.00000000       0.00000000
H       -0.37633731       0.90485660       0.00000000
3
Lattice="15.0 0.0 0.0 0.0 15.0 0.0 0.0 0.0 15.0" Properties=species:S:1:pos:R:3 energy=0.0262336183 pbc="T T T"
O        0.00000000       0.00000000       0.00000000
H        0.96566398       0.00000000       0.00000000
H       -0.32881008       0.91256625       0.00000000
3
Lattice="15.0 0.0 0.0 0.0 15.0 0.0 0.0 0.0 15.0" Properties=species:S:1:pos:R:3 energy=1.151333772 pbc="T T T"
O        0.00000000       0.00000000       0.00000000
H        1.01435245       0.00000000       0.00000000
H        0.35168060       0.85397615       0.00000000
3
Lattice="15.0 0.0 0.0 0.0 15.0 0.0 0.0 0.0 15.0" Properties=species:S:1:pos:R:3 energy=0.096576145 pbc="T T T"
O        0.00000000       0.00000000       0.00000000
H        0.99846998       0.00000000       0.00000000
H       -0.15955629       0.99390515       0.00000000
3
Lattice="15.0 0.0 0.0 0.0 15.0 0.0 0.0 0.0 15.0" Properties=species:S:1:pos:R:3 energy=0.0580161934 pbc="T T T"
O        0.00000000       0.00000000       0.00000000
H        0.93253099       0.00000000       0.00000000
H       -0.16967018       0.91496893       0.00000000
3
Lattice="15.0 0.0 0.0 0.0 15.0 0.0 0.0 0.0 15.0" Properties=species:S:1:pos:R:3 energy=0.0128045517 pbc="T T T"
O        0.00000000       0.00000000       0.00000000
H        0.97189489       0.00000000       0.00000000
H       -0.27481146       0.93197599       0.00000000
3
Lattice="15.0 0.0 0.0 0.0 15.0 0.0 0.0 0.0 15.0" Properties=species:S:1:pos:R:3 energy=0.0401804877 pbc="T T T"
O        0.00000000       0.00000000       0.00000000
H        0.93774922       0.00000000       0.00000000
H       -0.33507065       0.88038928       0.00000000
3
Lattice="15.0 0.0 0.0 0.0 15.0 0.0 0.0 0.0 15.0" Properties=species:S:1:pos:R:3 energy=1.3078782035 pbc="T T T"
O        0.00000000       0.00000000       0.00000000
H        0.94055153       0.00000000       0.00000000
H        0.14975467       1.22976087       0.00000000
3
Lattice="15.0 0.0 0.0 0.0 15.0 0.0 0.0 0.0 15.0" Properties=species:S:1:pos:R:3 energy=0.3624090784 pbc="T T T"
O        0.00000000       0.00000000       0.00000000
H        1.02138314       0.00000000       0.00000000
H        0.03969805       1.04212166       0.00000000
3
Lattice="15.0 0.0 0.0 0.0 15.0 0.0 0.0 0.0 15.0" Properties=species:S:1:pos:R:3 energy=0.2086933031 pbc="T T T"
O        0.00000000       0.00000000       0.00000000
H        0.99025091       0.00000000       0.00000000
H       -0.27250595       1.01532176       0.00000000
3
Lattice="15.0 0.0 0.0 0.0 15.0 0.0 0.0 0.0 15.0" Properties=species:S:1:pos:R:3 energy=0.0182026295 pbc="T T T"
O        0.00000000       0.00000000       0.00000000
H        0.94580457       0.00000000       0.00000000
H       -0.29467352       0.92892629       0.00000000
3
Lattice="15.0 0.0 0.0 0.0 15.0 0.0 0.0 0.0 15.0" Properties=species:S:1:pos:R:3 energy=0.006686028 pbc="T T T"
O        0.00000000       0.00000000       0.00000000
H        0.94806938       0.00000000       0.00000000
H       -0.26065121       0.91206498       0.00000000
3
Lattice="15.0 0.0 0.0 0.0 15.0 0.0 0.0 0.0 15.0" Properties=species:S:1:pos:R:3 energy=0.0307780341 pbc="T T T"
O        0.00000000       0.00000000       0.00000000
H        0.92826798       0.00000000       0.00000000
H       -0.25590615       0.91009137       0.00000000
3
Lattice="15.0 0.0 0.0 0.0 15.0 0.0 0.0 0.0 15.0" Properties=species:S:1:pos:R:3 energy=1.8526772075 pbc="T T T"
O        0.00000000       0.00000000       0.00000000
H        1.22207863       0.00000000       0.00000000
H       -0.43850946       1.08111520       0.00000000
3
Lattice="15.0 0.0 0.0 0.0 15.0 0.0 0.0 0.0 15.0" Properties=species:S:1:pos:R:3 energy=0.0216297239 pbc="T T T"
O        0.00000000       0.00000000       0.00000000
H        0.96127896       0.00000000       0.00000000
H       -0.32915617       0.90067454       0.00000000
3
Lattice="15.0 0.0 0.0 0.0 15.0 0.0 0.0 0.0 15.0" Properties=species:S:1:pos:R:3 energy=0.0512250777 pbc="T T T"
O        0.00000000       0.00000000       0.00000000
H        0.97092860       0.00000000       0.00000000
H       -0.36524255       0.90109090       0.00000000
3
Lattice="15.0 0.0 0.0 0.0 15.0 0.0 0.0 0.0 15.0" Properties=species:S:1:pos:R:3 energy=0.0216462902 pbc="T T T"
O        0.00000000       0.00000000       0.00000000
H        0.96139675       0.00000000       0.00000000
H       -0.32883037       0.90325724       0.00000000
3
Lattice="15.0 0.0 0.0 0.0 15.0 0.0 0.0 0.0 15.0" Properties=species:S:1:pos:R:3 energy=0.3337799928 pbc="T T T"
O        0.00000000       0.00000000       0.00000000
H        1.04349355       0.00000000       0.00000000
H        0.02030417       1.01581399       0.00000000
3
Lattice="15.0 0.0 0.0 0.0 15.0 0.0 0.0 0.0 15.0" Properties=species:S:1:pos:R:3 energy=0.0386722014 pbc="T T T"
O        0.00000000       0.00000000       0.00000000
H        0.95456070       0.00000000       0.00000000
H       -0.36123281       0.89394453       0.00000000
3
Lattice="15.0 0.0 0.0 0.0 15.0 0.0 0.0 0.0 15.0" Properties=species:S:1:pos:R:3 energy=0.011549149 pbc="T T T"
O        0.00000000       0.00000000       0.00000000
H        0.96128842       0.00000000       0.00000000
H       -0.20877791       0.91718608       0.00000000
3
Lattice="15.0 0.0 0.0 0.0 15.0 0.0 0.0 0.0 15.0" Properties=species:S:1:pos:R:3 energy=0.0035740822 pbc="T T T"
O        0.00000000       0.00000000       0.00000000
H        0.96525973       0.00000000       0.00000000
H       -0.25146445       0.91665442       0.00000000
3
Lattice="15.0 0.0 0.0 0.0 15.0 0.0 0.0 0.0 15.0" Properties=species:S:1:pos:R:3 energy=0.4983401748 pbc="T T T"
O        0.00000000       0.00000000       0.00000000
H        1.03331773       0.00000000       0.00000000
H        0.02001502       0.87990115       0.00000000
3
Lattice="15.0 0.0 0.0 0.0 15.0 0.0 0.0 0.0 15.0" Properties=species:S:1:pos:R:3 energy=0.1145101192 pbc="T T T"
O        0.00000000       0.00000000       0.00000000
H        0.90036300       0.00000000       0.00000000
H       -0.24593188       0.90448092       0.00000000
3
Lattice="15.0 0.0 0.0 0.0 15.0 0.0 0.0 0.0 15.0" Properties=species:S:1:pos:R:3 energy=1.0445823809 pbc="T T T"
O        0.00000000       0.00000000       0.00000000
H        0.96414419       0.00000000       0.00000000
H        0.23404044       1.14482722       0.00000000
3
Lattice="15.0 0.0 0.0 0.0 15.0 0.0 0.0 0.0 15.0" Properties=species:S:1:pos:R:3 energy=0.8849514462 pbc="T T T"
O        0.00000000       0.00000000       0.00000000
H        1.06832170       0.00000000       0.00000000
H        0.25886460       1.03684583       0.00000000
3
Lattice="15.0 0.0 0.0 0.0 15.0 0.0 0.0 0.0 15.0" Properties=species:S:1:pos:R:3 energy=0.0202742704 pbc="T T T"
O        0.00000000       0.00000000       0.00000000
H        0.97747166       0.00000000       0.00000000
H       -0.26600878       0.90300887       0.00000000
3
Lattice="15.0 0.0 0.0 0.0 15.0 0.0 0.0 0.0 15.0" Properties=species:S:1:pos:R:3 energy=1.2386552865 pbc="T T T"
O        0.00000000       0.00000000       0.00000000
H        0.85647443       0.00000000       0.00000000
H       -0.40461665       0.70070063       0.00000000
3
Lattice="15.0 0.0 0.0 0.0 15.0 0.0 0.0 0.0 15.0" Properties=species:S:1:pos:R:3 energy=0.5005426589 pbc="T T T"
O        0.00000000       0.00000000       0.00000000
H        0.88792357       0.00000000       0.00000000
H       -0.52502074       0.90995496       0.00000000
3
Lattice="15.0 0.0 0.0 0.0 15.0 0.0 0.0 0.0 15.0" Properties=species:S:1:pos:R:3 energy=0.0113791377 pbc="T T T"
O        0.00000000       0.00000000       0.00000000
H        0.97123662       0.00000000       0.00000000
H       -0.19119788       0.95167059       0.00000000
3
Lattice="15.0 0.0 0.0 0.0 15.0 0.0 0.0 0.0 15.0" Properties=species:S:1:pos:R:3 energy=0.0682542515 pbc="T T T"
O        0.00000000       0.00000000       0.00000000
H        0.93437600       0.00000000       0.00000000
H       -0.34284139       0.86130643       0.00000000
3
Lattice="15.0 0.0 0.0 0.0 15.0 0.0 0.0 0.0 15.0" Properties=species:S:1:pos:R:3 energy=0.014269542 pbc="T T T"
O        0.00000000       0.00000000       0.00000000
H        0.96167797       0.00000000       0.00000000
H       -0.20389674       0.95933910       0.00000000
3
Lattice="15.0 0.0 0.0 0.0 15.0 0.0 0.0 0.0 15.0" Properties=species:S:1:pos:R:3 energy=0.0121160084 pbc="T T T"
O        0.00000000       0.00000000       0.00000000
H        0.97564333       0.00000000       0.00000000
H       -0.27287819       0.91372346       0.00000000
3
Lattice="15.0 0.0 0.0 0.0 15.0 0.0 0.0 0.0 15.0" Properties=species:S:1:pos:R:3 energy=1.6732364192 pbc="T T T"
O        0.00000000       0.00000000       0.00000000
H        1.13662447       0.00000000       0.00000000
H       -0.33186013       1.18867410       0.00000000
3
Lattice="15.0 0.0 0.0 0.0 15.0 0.0 0.0 0.0 15.0" Properties=species:S:1:pos:R:3 energy=0.1318576499 pbc="T T T"
O        0.00000000       0.00000000       0.00000000
H        0.91502629       0.00000000       0.00000000
H       -0.18974267       0.89142740       0.00000000
3
Lattice="15.0 0.0 0.0 0.0 15.0 0.0 0.0 0.0 15.0" Properties=species:S:1:pos:R:3 energy=0.0466257031 pbc="T T T"
O        0.00000000       0.00000000       0.00000000
H        0.92737171       0.00000000       0.00000000
H       -0.27656859       0.89153811       0.00000000
3
Lattice="15.0 0.0 0.0 0.0 15.0 0.0 0.0 0.0 15.0" Properties=species:S:1:pos:R:3 energy=1.7837052122 pbc="T T T"
O        0.00000000       0.00000000       0.00000000
H        0.76011170       0.00000000       0.00000000
H       -0.21803296       0.88613341       0.00000000
3
Lattice="15.0 0.0 0.0 0.0 15.0 0.0 0.0 0.0 15.0" Properties=species:S:1:pos:R:3 energy=0.3721418428 pbc="T T T"
O        0.00000000       0.00000000       0.00000000
H        0.94542191       0.00000000       0.00000000
H       -0.62253977       0.75399666       0.00000000
3
Lattice="15.0 0.0 0.0 0.0 15.0 0.0 0.0 0.0 15.0" Properties=species:S:1:pos:R:3 energy=0.4006246754 pbc="T T T"
O        0.00000000       0.00000000       0.00000000
H        0.98842034       0.00000000       0.00000000
H       -0.59606375       0.81853102       0.00000000
3
Lattice="15.0 0.0 0.0 0.0 15.0 0.0 0.0 0.0 15.0" Properties=species:S:1:pos:R:3 energy=0.0473051252 pbc="T T T"
O        0.00000000       0.00000000       0.00000000
H        0.93768686       0.00000000       0.00000000
H       -0.13821536       0.93573048       0.00000000
3
Lattice="15.0 0.0 0.0 0.0 15.0 0.0 0.0 0.0 15.0" Properties=species:S:1:pos:R:3 energy=0.0167872456 pbc="T T T"
O        0.00000000       0.00000000       0.00000000
H        0.94230047       0.00000000       0.00000000
H       -0.24298577       0.90805105       0.00000000
3
Lattice="15.0 0.0 0.0 0.0 15.0 0.0 0.0 0.0 15.0" Properties=species:S:1:pos:R:3 energy=0.8526906665 pbc="T T T"
O        0.00000000       0.00000000       0.00000000
H        0.96558480       0.00000000       0.00000000
H       -0.80464670       0.63535578       0.00000000
3
Lattice="15.0 0.0 0.0 0.0 15.0 0.0 0.0 0.0 15.0" Properties=species:S:1:pos:R:3 energy=0.0591454224 pbc="T T T"
O        0.00000000       0.00000000       0.00000000
H        0.92244613       0.00000000       0.00000000
H       -0.31798932       0.88362003       0.00000000
3
Lattice="15.0 0.0 0.0 0.0 15.0 0.0 0.0 0.0 15.0" Properties=species:S:1:pos:R:3 energy=0.0093003483 pbc="T T T"
O        0.00000000       0.00000000       0.00000000
H        0.96949064       0.00000000       0.00000000
H       -0.27955617       0.91030884       0.00000000
3
Lattice="15.0 0.0 0.0 0.0 15.0 0.0 0.0 0.0 15.0" Properties=species:S:1:pos:R:3 energy=0.0324591862 pbc="T T T"
O        0.00000000       0.00000000       0.00000000
H        0.94710355       0.00000000       0.00000000
H       -0.25867895       0.89014128       0.00000000
3
Lattice="15.0 0.0 0.0 0.0 15.0 0.0 0.0 0.0 15.0" Properties=species:S:1:pos:R:3 energy=0.3712412358 pbc="T T T"
O        0.00000000       0.00000000       0.00000000
H        0.91872252       0.00000000       0.00000000
H       -0.56399430       0.72014876       0.00000000
3
Lattice="15.0 0.0 0.0 0.0 15.0 0.0 0.0 0.0 15.0" Properties=species:S:1:pos:R:3 energy=0.1395408609 pbc="T T T"
O        0.00000000       0.00000000       0.00000000
H        1.02625353       0.00000000       0.00000000
H       -0.29103486       0.88478245       0.00000000
3
Lattice="15.0 0.0 0.0 0.0 15.0 0.0 0.0 0.0 15.0" Properties=species:S:1:pos:R:3 energy=0.0221498614 pbc="T T T"
O        0.00000000       0.00000000       0.00000000
H        0.94499892       0.00000000       0.00000000
H       -0.31464514       0.89279427       0.00000000
3
Lattice="15.0 0.0 0.0 0.0 15.0 0.0 0.0 0.0 15.0" Properties=species:S:1:pos:R:3 energy=0.0313436663 pbc="T T T"
O        0.00000000       0.00000000       0.00000000
H        0.93458420       0.00000000       0.00000000
H       -0.24615281       0.90200732       0.00000000
3
Lattice="15.0 0.0 0.0 0.0 15.0 0.0 0.0 0.0 15.0" Properties=species:S:1:pos:R:3 energy=0.8159863925 pbc="T T T"
O        0.00000000       0.00000000       0.00000000
H        0.99042428       0.00000000       0.00000000
H       -0.74950824       0.74484235       0.00000000
3
Lattice="15.0 0.0 0.0 0.0 15.0 0.0 0.0 0.0 15.0" Properties=species:S:1:pos:R:3 energy=0.1469405048 pbc="T T T"
O        0.00000000       0.00000000       0.00000000
H        0.95335122       0.00000000       0.00000000
H       -0.06510232       0.91278134       0.00000000
3
Lattice="15.0 0.0 0.0 0.0 15.0 0.0 0.0 0.0 15.0" Properties=species:S:1:pos:R:3 energy=0.0624976964 pbc="T T T"
O        0.00000000       0.00000000       0.00000000
H        0.99332027       0.00000000       0.00000000
H       -0.30546730       0.93811205       0.00000000
3
Lattice="15.0 0.0 0.0 0.0 15.0 0.0 0.0 0.0 15.0" Properties=species:S:1:pos:R:3 energy=0.022107877 pbc="T T T"
O        0.00000000       0.00000000       0.00000000
H        0.98080115       0.00000000       0.00000000
H       -0.18716061       0.95671766       0.00000000
3
Lattice="15.0 0.0 0.0 0.0 15.0 0.0 0.0 0.0 15.0" Properties=species:S:1:pos:R:3 energy=0.0147624599 pbc="T T T"
O        0.00000000       0.00000000       0.00000000
H        0.97739185       0.00000000       0.00000000
H       -0.19064334       0.93170031       0.00000000
3
Lattice="15.0 0.0 0.0 0.0 15.0 0.0 0.0 0.0 15.0" Properties=species:S:1:pos:R:3 energy=1.5080857338 pbc="T T T"
O        0.00000000       0.00000000       0.00000000
H        0.82474619       0.00000000       0.00000000
H        0.10907257       0.85636214       0.00000000
3
Lattice="15.0 0.0 0.0 0.0 15.0 0.0 0.0 0.0 15.0" Properties=species:S:1:pos:R:3 energy=0.0061069344 pbc="T T T"
O        0.00000000       0.00000000       0.00000000
H        0.96420501       0.00000000       0.00000000
H       -0.20602751       0.94837856       0.00000000
3
Lattice="15.0 0.0 0.0 0.0 15.0 0.0 0.0 0.0 15.0" Properties=species:S:1:pos:R:3 energy=0.0106999497 pbc="T T T"
O        0.00000000       0.00000000       0.00000000
H        0.95095680       0.00000000       0.00000000
H       -0.19166498       0.92916205       0.00000000
3
Lattice="15.0 0.0 0.0 0.0 15.0 0.0 0.0 0.0 15.0" Properties=species:S:1:pos:R:3 energy=0.0614361993 pbc="T T T"
O        0.00000000       0.00000000       0.00000000
H        0.96663319       0.00000000       0.00000000
H       -0.30060384       0.86709387       0.00000000
3
Lattice="15.0 0.0 0.0 0.0 15.0 0.0 0.0 0.0 15.0" Properties=species:S:1:pos:R:3 energy=0.0114490873 pbc="T T T"
O        0.00000000       0.00000000       0.00000000
H        0.97460751       0.00000000       0.00000000
H       -0.18962021       0.93570904       0.00000000
3
Lattice="15.0 0.0 0.0 0.0 15.0 0.0 0.0 0.0 15.0" Properties=species:S:1:pos:R:3 energy=0.5275439703 pbc="T T T"
O        0.00000000       0.00000000       0.00000000
H        1.06846535       0.00000000       0.00000000
H       -0.07323406       1.07239142       0.00000000
3
Lattice="15.0 0.0 0.0 0.0 15.0 0.0 0.0 0.0 15.0" Properties=species:S:1:pos:R:3 energy=0.5580964301 pbc="T T T"
O        0.00000000       0.00000000       0.00000000
H        1.04571746       0.00000000       0.00000000
H        0.07510742       1.07094407       0.00000000
3
Lattice="15.0 0.0 0.0 0.0 15.0 0.0 0.0 0.0 15.0" Properties=species:S:1:pos:R:3 energy=1.1966523979 pbc="T T T"
O        0.00000000       0.00000000       0.00000000
H        1.03864292       0.00000000       0.00000000
H       -0.01646276       0.80554978       0.00000000
3
Lattice="15.0 0.0 0.0 0.0 15.0 0.0 0.0 0.0 15.0" Properties=species:S:1:pos:R:3 energy=0.4530262319 pbc="T T T"
O        0.00000000       0.00000000       0.00000000
H        0.89992309       0.00000000       0.00000000
H       -0.54967353       0.88464686       0.00000000
3
Lattice="15.0 0.0 0.0 0.0 15.0 0.0 0.0 0.0 15.0" Properties=species:S:1:pos:R:3 energy=0.0509637123 pbc="T T T"
O        0.00000000       0.00000000       0.00000000
H        0.98149517       0.00000000       0.00000000
H       -0.33472523       0.92137669       0.00000000
3
Lattice="15.0 0.0 0.0 0.0 15.0 0.0 0.0 0.0 15.0" Properties=species:S:1:pos:R:3 energy=0.0025710216 pbc="T T T"
O        0.00000000       0.00000000       0.00000000
H        0.96024883       0.00000000       0.00000000
H       -0.20898652       0.94085812       0.00000000
3
Lattice="15.0 0.0 0.0 0.0 15.0 0.0 0.0 0.0 15.0" Properties=species:S:1:pos:R:3 energy=1.0455016033 pbc="T T T"
O        0.00000000       0.00000000       0.00000000
H        1.03378133       0.00000000       0.00000000
H       -0.75538289       0.50773944       0.00000000
3
Lattice="15.0 0.0 0.0 0.0 15.0 0.0 0.0 0.0 15.0" Properties=species:S:1:pos:R:3 energy=0.0721580895 pbc="T T T"
O        0.00000000       0.00000000       0.00000000
H        0.99143762       0.00000000       0.00000000
H       -0.31644117       0.87359552       0.00000000
3
Lattice="15.0 0.0 0.0 0.0 15.0 0.0 0.0 0.0 15.0" Properties=species:S:1:pos:R:3 energy=0.3375639129 pbc="T T T"
O        0.00000000       0.00000000       0.00000000
H        0.92670697       0.00000000       0.00000000
H        0.05317073       0.92096207       0.00000000
3
Lattice="15.0 0.0 0.0 0.0 15.0 0.0 0.0 0.0 15.0" Properties=species:S:1:pos:R:3 energy=0.0313020682 pbc="T T T"
O        0.00000000       0.00000000       0.00000000
H        0.94013437       0.00000000       0.00000000
H       -0.29152305       0.88757493       0.00000000
3
Lattice="15.0 0.0 0.0 0.0 15.0 0.0 0.0 0.0 15.0" Properties=species:S:1:pos:R:3 energy=0.1368860582 pbc="T T T"
O        0.00000000       0.00000000       0.00000000
H        0.89361933       0.00000000       0.00000000
H       -0.30335390       0.89835667       0.00000000
3
Lattice="15.0 0.0 0.0 0.0 15.0 0.0 0.0 0.0 15.0" Properties=species:S:1:pos:R:3 energy=1.00339551 pbc="T T T"
O        0.00000000       0.00000000       0.00000000
H        1.00355843       0.00000000       0.00000000
H        0.36406525       0.90717243       0.00000000
3
Lattice="15.0 0.0 0.0 0.0 15.0 0.0 0.0 0.0 15.0" Properties=species:S:1:pos:R:3 energy=0.4895755397 pbc="T T T"
O        0.00000000       0.00000000       0.00000000
H        1.05670008       0.00000000       0.00000000
H       -0.05412696       1.07211858       0.00000000
3
Lattice="15.0 0.0 0.0 0.0 15.0 0.0 0.0 0.0 15.0" Properties=species:S:1:pos:R:3 energy=0.8660452092 pbc="T T T"
O        0.00000000       0.00000000       0.00000000
H        0.90141833       0.00000000       0.00000000
H       -0.79532409       0.53351870       0.00000000
3
Lattice="15.0 0.0 0.0 0.0 15.0 0.0 0.0 0.0 15.0" Properties=species:S:1:pos:R:3 energy=0.7099374008 pbc="T T T"
O        0.00000000       0.00000000       0.00000000
H        1.00496555       0.00000000       0.00000000
H       -0.41133433       1.06584733       0.00000000
3
Lattice="15.0 0.0 0.0 0.0 15.0 0.0 0.0 0.0 15.0" Properties=species:S:1:pos:R:3 energy=0.0108116306 pbc="T T T"
O        0.00000000       0.00000000       0.00000000
H        0.97035374       0.00000000       0.00000000
H       -0.19060174       0.95134442       0.00000000
3
Lattice="15.0 0.0 0.0 0.0 15.0 0.0 0.0 0.0 15.0" Properties=species:S:1:pos:R:3 energy=1.6198078261 pbc="T T T"
O        0.00000000       0.00000000       0.00000000
H        1.03438637       0.00000000       0.00000000
H       -0.02718376       0.77814702       0.00000000
3
Lattice="15.0 0.0 0.0 0.0 15.0 0.0 0.0 0.0 15.0" Properties=species:S:1:pos:R:3 energy=0.2441581991 pbc="T T T"
O        0.00000000       0.00000000       0.00000000
H        1.02468494       0.00000000       0.00000000
H       -0.33375194       0.97630423       0.00000000
3
Lattice="15.0 0.0 0.0 0.0 15.0 0.0 0.0 0.0 15.0" Properties=species:S:1:pos:R:3 energy=0.0296199801 pbc="T T T"
O        0.00000000       0.00000000       0.00000000
H        0.96026788       0.00000000       0.00000000
H       -0.17049000       0.91852525       0.00000000
3
Lattice="15.0 0.0 0.0 0.0 15.0 0.0 0.0 0.0 15.0" Properties=species:S:1:pos:R:3 energy=0.2553808441 pbc="T T T"
O        0.00000000       0.00000000       0.00000000
H        0.97110909       0.00000000       0.00000000
H       -0.52568512       0.85736395       0.00000000
3
Lattice="15.0 0.0 0.0 0.0 15.0 0.0 0.0 0.0 15.0" Properties=species:S:1:pos:R:3 energy=0.3656706161 pbc="T T T"
O        0.00000000       0.00000000       0.00000000
H        0.95334343       0.00000000       0.00000000
H       -0.61949222       0.74942256       0.00000000
3
Lattice="15.0 0.0 0.0 0.0 15.0 0.0 0.0 0.0 15.0" Properties=species:S:1:pos:R:3 energy=0.0523977034 pbc="T T T"
O        0.00000000       0.00000000       0.00000000
H        0.95938143       0.00000000       0.00000000
H       -0.30317642       0.86937978       0.00000000
3
Lattice="15.0 0.0 0.0 0.0 15.0 0.0 0.0 0.0 15.0" Properties=species:S:1:pos:R:3 energy=0.0482187338 pbc="T T T"
O        0.00000000       0.00000000       0.00000000
H        0.95765602       0.00000000       0.00000000
H       -0.15441236       0.98417863       0.00000000
3
Lattice="15.0 0.0 0.0 0.0 15.0 0.0 0.0 0.0 15.0" Properties=species:S:1:pos:R:3 energy=0.0393331469 pbc="T T T"
O        0.00000000       0.00000000       0.00000000
H        0.94490464       0.00000000       0.00000000
H       -0.18365724       0.91106568       0.00000000
3
Lattice="15.0 0.0 0.0 0.0 15.0 0.0 0.0 0.0 15.0" Properties=species:S:1:pos:R:3 energy=0.1930924305 pbc="T T T"
O        0.00000000       0.00000000       0.00000000
H        0.94948357       0.00000000       0.00000000
H       -0.51379794       0.82876730       0.00000000
3
Lattice="15.0 0.0 0.0 0.0 15.0 0.0 0.0 0.0 15.0" Properties=species:S:1:pos:R:3 energy=0.0848894072 pbc="T T T"
O        0.00000000       0.00000000       0.00000000
H        0.96015421       0.00000000       0.00000000
H       -0.05515414       0.96012328       0.00000000
3
Lattice="15.0 0.0 0.0 0.0 15.0 0.0 0.0 0.0 15.0" Properties=species:S:1:pos:R:3 energy=0.3108812822 pbc="T T T"
O        0.00000000       0.00000000       0.00000000
H        1.01977438       0.00000000       0.00000000
H       -0.49891807       0.86862071       0.00000000
3
Lattice="15.0 0.0 0.0 0.0 15.0 0.0 0.0 0.0 15.0" Properties=species:S:1:pos:R:3 energy=0.0915381474 pbc="T T T"
O        0.00000000       0.00000000       0.00000000
H        0.98155568       0.00000000       0.00000000
H       -0.38760808       0.90720260       0.00000000
3
Lattice="15.0 0.0 0.0 0.0 15.0 0.0 0.0 0.0 15.0" Properties=species:S:1:pos:R:3 energy=0.050018767 pbc="T T T"
O        0.00000000       0.00000000       0.00000000
H        0.94975155       0.00000000       0.00000000
H       -0.10579713       0.94907210       0.00000000
3
Lattice="15.0 0.0 0.0 0.0 15.0 0.0 0.0 0.0 15.0" Properties=species:S:1:pos:R:3 energy=0.0508460612 pbc="T T T"
O        0.00000000       0.00000000       0.00000000
H        0.98170528       0.00000000       0.00000000
H       -0.17255745       0.91144567       0.00000000
3
Lattice="15.0 0.0 0.0 0.0 15.0 0.0 0.0 0.0 15.0" Properties=species:S:1:pos:R:3 energy=0.0325053503 pbc="T T T"
O        0.00000000       0.00000000       0.00000000
H        0.95977283       0.00000000       0.00000000
H       -0.35034938       0.89680441       0.00000000
3
Lattice="15.0 0.0 0.0 0.0 15.0 0.0 0.0 0.0 15.0" Properties=species:S:1:pos:R:3 energy=0.1109097236 pbc="T T T"
O        0.00000000       0.00000000       0.00000000
H        0.97065785       0.00000000       0.00000000
H       -0.03021894       0.95699487       0.00000000
3
Lattice="15.0 0.0 0.0 0.0 15.0 0.0 0.0 0.0 15.0" Properties=species:S:1:pos:R:3 energy=0.2484106557 pbc="T T T"
O        0.00000000       0.00000000       0.00000000